DF-ISE text

Info {
  version   = 1.0
  type      = xyplot
  datasets  = [
    "time"
    "Drain_contact OuterVoltage" "Drain_contact InnerVoltage" "Drain_contact QuasiFermiPotential" "Drain_contact DisplacementCurrent" "Drain_contact eCurrent"
    "Drain_contact hCurrent" "Drain_contact TotalCurrent" "Drain_contact Charge" "Body_contact OuterVoltage" "Body_contact InnerVoltage"
    "Body_contact QuasiFermiPotential" "Body_contact DisplacementCurrent" "Body_contact eCurrent" "Body_contact hCurrent" "Body_contact TotalCurrent"
    "Body_contact Charge" "Source_contact OuterVoltage" "Source_contact InnerVoltage" "Source_contact QuasiFermiPotential" "Source_contact DisplacementCurrent"
    "Source_contact eCurrent" "Source_contact hCurrent" "Source_contact TotalCurrent" "Source_contact Charge" "Gate_contact OuterVoltage"
    "Gate_contact InnerVoltage" "Gate_contact QuasiFermiPotential" "Gate_contact DisplacementCurrent" "Gate_contact eCurrent" "Gate_contact hCurrent"
    "Gate_contact TotalCurrent" "Gate_contact Charge" ]
  functions = [
    Time
    OuterVoltage InnerVoltage QuasiFermiPotential DisplacementCurrent eCurrent
    hCurrent TotalCurrent Charge OuterVoltage InnerVoltage
    QuasiFermiPotential DisplacementCurrent eCurrent hCurrent TotalCurrent
    Charge OuterVoltage InnerVoltage QuasiFermiPotential DisplacementCurrent
    eCurrent hCurrent TotalCurrent Charge OuterVoltage
    InnerVoltage QuasiFermiPotential DisplacementCurrent eCurrent hCurrent
    TotalCurrent Charge ]
}

Data {
      0.00000000000000E+00
      0.00000000000000E+00   0.00000000000000E+00   0.00000000000000E+00   0.00000000000000E+00  -1.79092407778236E-19
      7.78544204301546E-24  -1.79084622336193E-19   1.89650730080909E-15   0.00000000000000E+00   0.00000000000000E+00
      0.00000000000000E+00   0.00000000000000E+00   1.57963105516986E-17  -1.57990900849966E-17  -2.77953329803549E-21
     -4.52415296549164E-15   0.00000000000000E+00   0.00000000000000E+00   0.00000000000000E+00   0.00000000000000E+00
      1.81855621410403E-19   8.53422382748198E-24   1.81864155634230E-19   1.89650730080910E-15   1.80000000000000E+00
      1.80000000000000E+00   0.00000000000000E+00   0.00000000000000E+00   0.00000000000000E+00   0.00000000000000E+00
      0.00000000000000E+00   7.31138363873453E-16
      0.00000000000000E+00
      0.00000000000000E+00   0.00000000000000E+00   0.00000000000000E+00   0.00000000000000E+00   2.28431127396889E-19
     -1.61227526181449E-25   2.28430966169363E-19   1.89650730080914E-15   0.00000000000000E+00   0.00000000000000E+00
      0.00000000000000E+00   0.00000000000000E+00   8.12982056130927E-17  -7.94385148926783E-17   1.85969072041443E-18
     -4.52415296549179E-15   0.00000000000000E+00   0.00000000000000E+00   0.00000000000000E+00   0.00000000000000E+00
     -2.08812217750696E-18   4.90923178427380E-25  -2.08812168658378E-18   1.89650730080915E-15   1.80000000000000E+00
      1.80000000000000E+00   0.00000000000000E+00   0.00000000000000E+00   0.00000000000000E+00   0.00000000000000E+00
      0.00000000000000E+00   7.31138363873497E-16
      1.00000000000000E-03
      1.80000000000000E-03   1.80000000000000E-03   0.00000000000000E+00   0.00000000000000E+00   3.54829391009734E-06
     -7.91713575126441E-22   3.54829391009734E-06   1.89949866926189E-15   0.00000000000000E+00   0.00000000000000E+00
      0.00000000000000E+00   0.00000000000000E+00   1.19990664260308E-16  -7.94385434133254E-17   4.05521208469824E-17
     -4.52677769412922E-15   0.00000000000000E+00   0.00000000000000E+00   0.00000000000000E+00   0.00000000000000E+00
     -3.54829391013789E-06  -1.91751180241074E-24  -3.54829391013789E-06   1.89650164127810E-15   1.80000000000000E+00
      1.80000000000000E+00   0.00000000000000E+00   0.00000000000000E+00   0.00000000000000E+00   0.00000000000000E+00
      0.00000000000000E+00   7.30777383589229E-16
      2.09200000000000E-03
      3.76560000000000E-03   3.76560000000000E-03   0.00000000000000E+00   0.00000000000000E+00   7.39488571241811E-06
      2.90474521124040E-20   7.39488571241814E-06   1.90276283774935E-15   0.00000000000000E+00   0.00000000000000E+00
      0.00000000000000E+00   0.00000000000000E+00  -8.89003245349341E-14  -7.94449322636610E-17  -8.89797694671977E-14
     -4.52964111592639E-15   0.00000000000000E+00   0.00000000000000E+00   0.00000000000000E+00   0.00000000000000E+00
     -7.39488562343834E-06  -2.42861755330706E-20  -7.39488562343837E-06   1.89649497128559E-15   1.80000000000000E+00
      1.80000000000000E+00   0.00000000000000E+00   0.00000000000000E+00   0.00000000000000E+00   0.00000000000000E+00
      0.00000000000000E+00   7.30383306891454E-16
      3.29320000000000E-03
      5.92776000000000E-03   5.92776000000000E-03   0.00000000000000E+00   0.00000000000000E+00   1.15900547160439E-05
      4.29955312269982E-20   1.15900547160440E-05   1.90635056917732E-15   0.00000000000000E+00   0.00000000000000E+00
      0.00000000000000E+00   0.00000000000000E+00  -1.48032813246499E-13  -7.94440513390394E-17  -1.48112257297838E-13
     -4.53278753665683E-15   0.00000000000000E+00   0.00000000000000E+00   0.00000000000000E+00   0.00000000000000E+00
     -1.15900545679317E-05  -3.99603454993314E-20  -1.15900545679317E-05   1.89648700511587E-15   1.80000000000000E+00
      1.80000000000000E+00   0.00000000000000E+00   0.00000000000000E+00   0.00000000000000E+00   0.00000000000000E+00
      0.00000000000000E+00   7.29949962363638E-16
      4.61452000000000E-03
      8.30613600000000E-03   8.30613600000000E-03   0.00000000000000E+00   0.00000000000000E+00   1.61596747109618E-05
      6.20368368013472E-20   1.61596747109619E-05   1.91029365627449E-15   0.00000000000000E+00   0.00000000000000E+00
      0.00000000000000E+00   0.00000000000000E+00  -2.35403409682450E-13  -7.94415372916109E-17  -2.35482851219741E-13
     -4.53624456963383E-15   0.00000000000000E+00   0.00000000000000E+00   0.00000000000000E+00   0.00000000000000E+00
     -1.61596744754790E-05  -6.23648521303332E-20  -1.61596744754790E-05   1.89647745709456E-15   1.80000000000000E+00
      1.80000000000000E+00   0.00000000000000E+00   0.00000000000000E+00   0.00000000000000E+00   0.00000000000000E+00
      0.00000000000000E+00   7.29473456264779E-16
      6.06797200000000E-03
      1.09223496000000E-02   1.09223496000000E-02   0.00000000000000E+00   0.00000000000000E+00   2.11306046882482E-05
      8.82245905278892E-20   2.11306046882483E-05   1.91462695065383E-15   0.00000000000000E+00   0.00000000000000E+00
      0.00000000000000E+00   0.00000000000000E+00  -3.66258312272497E-13  -7.94357494221834E-17  -3.66337748021919E-13
     -4.54004245081071E-15   0.00000000000000E+00   0.00000000000000E+00   0.00000000000000E+00   0.00000000000000E+00
     -2.11306043219105E-05  -9.51855662794238E-20  -2.11306043219106E-05   1.89646598617888E-15   1.80000000000000E+00
      1.80000000000000E+00   0.00000000000000E+00   0.00000000000000E+00   0.00000000000000E+00   0.00000000000000E+00
      0.00000000000000E+00   7.28949513977998E-16
      7.66676920000000E-03
      1.38001845600000E-02   1.38001845600000E-02   0.00000000000000E+00   0.00000000000000E+00   2.65303630556965E-05
      1.24175105901250E-19   2.65303630556966E-05   1.91938864664232E-15   0.00000000000000E+00   0.00000000000000E+00
      0.00000000000000E+00   0.00000000000000E+00  -5.62494506557674E-13  -7.94244319237281E-17  -5.62573930989598E-13
     -4.54421427468600E-15   0.00000000000000E+00   0.00000000000000E+00   0.00000000000000E+00   0.00000000000000E+00
     -2.65303624931225E-05  -1.43285874822883E-19  -2.65303624931227E-05   1.89645218398103E-15   1.80000000000000E+00
      1.80000000000000E+00   0.00000000000000E+00   0.00000000000000E+00   0.00000000000000E+00   0.00000000000000E+00
      0.00000000000000E+00   7.28373444062654E-16
      9.42544612000000E-03
      1.69658030160000E-02   1.69658030160000E-02   0.00000000000000E+00   0.00000000000000E+00   3.23867631042155E-05
      7.58364235254950E-25   3.23867631042155E-05   1.92462058819209E-15   0.00000000000000E+00   0.00000000000000E+00
      0.00000000000000E+00   0.00000000000000E+00   8.04090931307020E-17  -7.94443530389711E-17   9.64740091730859E-19
     -4.54879624876201E-15   0.00000000000000E+00   0.00000000000000E+00   0.00000000000000E+00   0.00000000000000E+00
     -3.23867631042164E-05  -6.86874058133923E-25  -3.23867631042164E-05   1.89643556120831E-15   1.80000000000000E+00
      1.80000000000000E+00   0.00000000000000E+00   0.00000000000000E+00   0.00000000000000E+00   0.00000000000000E+00
      0.00000000000000E+00   7.27740099361611E-16
      1.13553009268800E-02
      2.04395416683840E-02   2.04395416683840E-02   0.00000000000000E+00   0.00000000000000E+00   3.87122205164528E-05
     -1.97290022775101E-25   3.87122205164528E-05   1.93035467418747E-15   0.00000000000000E+00   0.00000000000000E+00
      0.00000000000000E+00   0.00000000000000E+00   8.22445153044765E-17  -7.94451307855724E-17   2.79938451890404E-18
     -4.55381578049775E-15   0.00000000000000E+00   0.00000000000000E+00   0.00000000000000E+00   0.00000000000000E+00
     -3.87122205164556E-05   9.11585912239870E-25  -3.87122205164556E-05   1.89641558315529E-15   1.80000000000000E+00
      1.80000000000000E+00   0.00000000000000E+00   0.00000000000000E+00   0.00000000000000E+00   0.00000000000000E+00
      0.00000000000000E+00   7.27045523154987E-16
      1.34729949349630E-02
      2.42513908829334E-02   2.42513908829334E-02   0.00000000000000E+00   0.00000000000000E+00   4.55315805638997E-05
      1.53150771431840E-24   4.55315805638997E-05   1.93663838353668E-15   0.00000000000000E+00   0.00000000000000E+00
      0.00000000000000E+00   0.00000000000000E+00   8.55026293297827E-17  -7.94458684600040E-17   6.05676086977873E-18
     -4.55931381930688E-15   0.00000000000000E+00   0.00000000000000E+00   0.00000000000000E+00   0.00000000000000E+00
     -4.55315805639057E-05   1.75908429808760E-24  -4.55315805639057E-05   1.89639157739640E-15   1.80000000000000E+00
      1.80000000000000E+00   0.00000000000000E+00   0.00000000000000E+00   0.00000000000000E+00   0.00000000000000E+00
      0.00000000000000E+00   7.26283858373793E-16
      1.57968111598327E-02
      2.84342600876989E-02   2.84342600876989E-02   0.00000000000000E+00   0.00000000000000E+00   5.28682832606993E-05
      1.32282039700717E-24   5.28682832606993E-05   1.94352354278229E-15   0.00000000000000E+00   0.00000000000000E+00
      0.00000000000000E+00   0.00000000000000E+00   7.63485524347159E-17  -7.94465513425852E-17  -3.09799890786928E-18
     -4.56533499426472E-15   0.00000000000000E+00   0.00000000000000E+00   0.00000000000000E+00   0.00000000000000E+00
     -5.28682832606962E-05   8.91119880008728E-27  -5.28682832606962E-05   1.89636274590726E-15   1.80000000000000E+00
      1.80000000000000E+00   0.00000000000000E+00   0.00000000000000E+00   0.00000000000000E+00   0.00000000000000E+00
      0.00000000000000E+00   7.25448705575160E-16
      1.83468121639231E-02
      3.30242618950616E-02   3.30242618950616E-02   0.00000000000000E+00   0.00000000000000E+00   6.07436032564206E-05
     -7.67782289701710E-25   6.07436032564206E-05   1.95106669764063E-15   0.00000000000000E+00   0.00000000000000E+00
      0.00000000000000E+00   0.00000000000000E+00   8.27921399574873E-17  -7.94471741198931E-17   3.34496583759421E-18
     -4.57192792314889E-15   0.00000000000000E+00   0.00000000000000E+00   0.00000000000000E+00   0.00000000000000E+00
     -6.07436032564240E-05  -2.41733344348063E-24  -6.07436032564240E-05   1.89632814744182E-15   1.80000000000000E+00
      1.80000000000000E+00   0.00000000000000E+00   0.00000000000000E+00   0.00000000000000E+00   0.00000000000000E+00
      0.00000000000000E+00   7.24533078066437E-16
      2.11450132657450E-02
      3.80610238783409E-02   3.80610238783409E-02   0.00000000000000E+00   0.00000000000000E+00   6.91757571992342E-05
      7.36078088285574E-26   6.91757571992342E-05   1.95932951301057E-15   0.00000000000000E+00   0.00000000000000E+00
      0.00000000000000E+00   0.00000000000000E+00   8.15875765343578E-17  -7.94477423237053E-17   2.13983421065250E-18
     -4.57914554381305E-15   0.00000000000000E+00   0.00000000000000E+00   0.00000000000000E+00   0.00000000000000E+00
     -6.91757571992364E-05   1.13458572957136E-24  -6.91757571992364E-05   1.89628667511165E-15   1.80000000000000E+00
      1.80000000000000E+00   0.00000000000000E+00   0.00000000000000E+00   0.00000000000000E+00   0.00000000000000E+00
      0.00000000000000E+00   7.23529355690822E-16
      2.42155726081441E-02
      4.35880306946595E-02   4.35880306946595E-02   0.00000000000000E+00   0.00000000000000E+00   7.81788680804529E-05
     -5.41307898570469E-25   7.81788680804529E-05   1.96837920213996E-15   0.00000000000000E+00   0.00000000000000E+00
      0.00000000000000E+00   0.00000000000000E+00   7.75492429423866E-17  -7.94482362376783E-17  -1.89899329529177E-18
     -4.58704547246045E-15   0.00000000000000E+00   0.00000000000000E+00   0.00000000000000E+00   0.00000000000000E+00
     -7.81788680804510E-05  -4.44336901450889E-25  -7.81788680804510E-05   1.89623703307901E-15   1.80000000000000E+00
      1.80000000000000E+00   0.00000000000000E+00   0.00000000000000E+00   0.00000000000000E+00   0.00000000000000E+00
      0.00000000000000E+00   7.22429237241481E-16
      2.75849997265368E-02
      4.96529995077663E-02   4.96529995077663E-02   0.00000000000000E+00   0.00000000000000E+00   8.77617754632439E-05
     -5.79484473036003E-25   8.77617754632439E-05   1.97828898787852E-15   0.00000000000000E+00   0.00000000000000E+00
      0.00000000000000E+00   0.00000000000000E+00   7.02933477630517E-17  -7.94486636381788E-17  -9.15531587512715E-18
     -4.59569039401966E-15   0.00000000000000E+00   0.00000000000000E+00   0.00000000000000E+00   0.00000000000000E+00
     -8.77617754632348E-05   7.92985870243060E-25  -8.77617754632348E-05   1.89617771276982E-15   1.80000000000000E+00
      1.80000000000000E+00   0.00000000000000E+00   0.00000000000000E+00   0.00000000000000E+00   0.00000000000000E+00
      0.00000000000000E+00   7.21223693371313E-16
      3.12823844177864E-02
      5.63082919520156E-02   5.63082919520156E-02   0.00000000000000E+00   0.00000000000000E+00   9.79266977948247E-05
     -6.43283269871657E-25   9.79266977948247E-05   1.98913859857752E-15   0.00000000000000E+00   0.00000000000000E+00
      0.00000000000000E+00   0.00000000000000E+00   7.58475138518519E-17  -7.94490202437187E-17  -3.60150639186677E-18
     -4.60514848893173E-15   0.00000000000000E+00   0.00000000000000E+00   0.00000000000000E+00   0.00000000000000E+00
     -9.79266977948211E-05   1.16185673465252E-24  -9.79266977948211E-05   1.89610696793196E-15   1.80000000000000E+00
      1.80000000000000E+00   0.00000000000000E+00   0.00000000000000E+00   0.00000000000000E+00   0.00000000000000E+00
      0.00000000000000E+00   7.19902922422252E-16
      3.53396478856510E-02
      6.36113661941718E-02   6.36113661941718E-02   0.00000000000000E+00   0.00000000000000E+00   1.08667852400372E-04
      1.07646016084777E-26   1.08667852400372E-04   2.00101479501619E-15   0.00000000000000E+00   0.00000000000000E+00
      0.00000000000000E+00   0.00000000000000E+00   8.44826330784815E-17  -7.94493064843867E-17   5.03332659409483E-18
     -4.61549389179179E-15   0.00000000000000E+00   0.00000000000000E+00   0.00000000000000E+00   0.00000000000000E+00
     -1.08667852400377E-04  -1.89972837208231E-24  -1.08667852400377E-04   1.89602279458106E-15   1.80000000000000E+00
      1.80000000000000E+00   0.00000000000000E+00   0.00000000000000E+00   0.00000000000000E+00   0.00000000000000E+00
      0.00000000000000E+00   7.18456302194544E-16
      3.97918183310544E-02
      7.16252729958978E-02   7.16252729958978E-02   0.00000000000000E+00   0.00000000000000E+00   1.19969856821663E-04
      2.81465746125868E-25   1.19969856821663E-04   2.01401194563280E-15   0.00000000000000E+00   0.00000000000000E+00
      0.00000000000000E+00   0.00000000000000E+00   7.87754814548145E-17  -7.94495331398616E-17  -6.74051685047100E-19
     -4.62680721412665E-15   0.00000000000000E+00   0.00000000000000E+00   0.00000000000000E+00   0.00000000000000E+00
     -1.19969856821662E-04  -8.27986596401319E-25  -1.19969856821662E-04   1.89592290490945E-15   1.80000000000000E+00
      1.80000000000000E+00   0.00000000000000E+00   0.00000000000000E+00   0.00000000000000E+00   0.00000000000000E+00
      0.00000000000000E+00   7.16872363584391E-16
      4.46773333664770E-02
      8.04192000596586E-02   8.04192000596586E-02   0.00000000000000E+00   0.00000000000000E+00   1.31806252558826E-04
     -9.97946654773528E-26   1.31806252558826E-04   2.02823266462772E-15   0.00000000000000E+00   0.00000000000000E+00
      0.00000000000000E+00   0.00000000000000E+00   8.20557208810853E-17  -7.94497030147068E-17   2.60601786637841E-18
     -4.63917614265751E-15   0.00000000000000E+00   0.00000000000000E+00   0.00000000000000E+00   0.00000000000000E+00
     -1.31806252558828E-04   1.24313059225246E-24  -1.31806252558828E-04   1.89580471838512E-15   1.80000000000000E+00
      1.80000000000000E+00   0.00000000000000E+00   0.00000000000000E+00   0.00000000000000E+00   0.00000000000000E+00
      0.00000000000000E+00   7.15138759644671E-16
      5.00383718653474E-02
      9.00690693576253E-02   9.00690693576253E-02   0.00000000000000E+00   0.00000000000000E+00   1.44137980912478E-04
      4.50318172323837E-25   1.44137980912478E-04   2.04378846802707E-15   0.00000000000000E+00   0.00000000000000E+00
      0.00000000000000E+00   0.00000000000000E+00   7.82766252629916E-17  -7.94498203135147E-17  -1.17319505052311E-18
     -4.65269609036357E-15   0.00000000000000E+00   0.00000000000000E+00   0.00000000000000E+00   0.00000000000000E+00
     -1.44137980912477E-04  -3.55821752946426E-25  -1.44137980912477E-04   1.89566535500884E-15   1.80000000000000E+00
      1.80000000000000E+00   0.00000000000000E+00   0.00000000000000E+00   0.00000000000000E+00   0.00000000000000E+00
      0.00000000000000E+00   7.13242267327658E-16
      5.59212181114412E-02
      1.00658192600594E-01   1.00658192600594E-01   0.00000000000000E+00   0.00000000000000E+00   1.56912122153452E-04
     -3.84517688027580E-27   1.56912122153452E-04   2.06080051843858E-15   0.00000000000000E+00   0.00000000000000E+00
      0.00000000000000E+00   0.00000000000000E+00   7.98878836061318E-17  -7.94498951892327E-17   4.37988416899151E-19
     -4.66747097523418E-15   0.00000000000000E+00   0.00000000000000E+00   0.00000000000000E+00   0.00000000000000E+00
     -1.56912122153453E-04  -1.31906250627588E-24  -1.56912122153453E-04   1.89550164696094E-15   1.80000000000000E+00
      1.80000000000000E+00   0.00000000000000E+00   0.00000000000000E+00   0.00000000000000E+00   0.00000000000000E+00
      0.00000000000000E+00   7.11168809834657E-16
      6.23766613921549E-02
      1.12277990505879E-01   1.12277990505879E-01   0.00000000000000E+00   0.00000000000000E+00   1.70061087106294E-04
     -3.44382030269938E-25   1.70061087106294E-04   2.07940042848190E-15   0.00000000000000E+00   0.00000000000000E+00
      0.00000000000000E+00   0.00000000000000E+00   9.16600172728610E-17  -7.94499363995448E-17   1.22100808733162E-17
     -4.68361410406423E-15   0.00000000000000E+00   0.00000000000000E+00   0.00000000000000E+00   0.00000000000000E+00
     -1.70061087106306E-04  -1.75875846686540E-24  -1.70061087106306E-04   1.89531016154134E-15   1.80000000000000E+00
      1.80000000000000E+00   0.00000000000000E+00   0.00000000000000E+00   0.00000000000000E+00   0.00000000000000E+00
      0.00000000000000E+00   7.08903514040983E-16
      6.94604344855246E-02
      1.25028782073944E-01   1.25028782073944E-01   0.00000000000000E+00   0.00000000000000E+00   1.83502402884459E-04
     -1.02763076668210E-24   1.83502402884459E-04   2.09973114581832E-15   0.00000000000000E+00   0.00000000000000E+00
      0.00000000000000E+00   0.00000000000000E+00   9.17606170092842E-17  -7.94499506270359E-17   1.23106663822483E-17
     -4.70124922729287E-15   0.00000000000000E+00   0.00000000000000E+00   0.00000000000000E+00   0.00000000000000E+00
     -1.83502402884471E-04  -2.08145147430145E-24  -1.83502402884471E-04   1.89508725667577E-15   1.80000000000000E+00
      1.80000000000000E+00   0.00000000000000E+00   0.00000000000000E+00   0.00000000000000E+00   0.00000000000000E+00
      0.00000000000000E+00   7.06430824798785E-16
      7.72336948266490E-02
      1.39020650687968E-01   1.39020650687968E-01   0.00000000000000E+00   0.00000000000000E+00   1.97139516333259E-04
     -1.75501129760663E-24   1.97139516333259E-04   2.12194791585981E-15   0.00000000000000E+00   0.00000000000000E+00
      0.00000000000000E+00   0.00000000000000E+00   1.31420347668117E-16  -7.94499419109528E-17   5.19704057571640E-17
     -4.72051176876524E-15   0.00000000000000E+00   0.00000000000000E+00   0.00000000000000E+00   0.00000000000000E+00
     -1.97139516333311E-04  -6.08129525274084E-24  -1.97139516333311E-04   1.89482916567798E-15   1.80000000000000E+00
      1.80000000000000E+00   0.00000000000000E+00   0.00000000000000E+00   0.00000000000000E+00   0.00000000000000E+00
      0.00000000000000E+00   7.03734687227454E-16
      8.57635525076429E-02
      1.54374394513757E-01   1.54374394513757E-01   0.00000000000000E+00   0.00000000000000E+00   2.10864060552946E-04
     -4.85628090115102E-24   2.10864060552946E-04   2.14621931390334E-15   0.00000000000000E+00   0.00000000000000E+00
      0.00000000000000E+00   0.00000000000000E+00   1.90203692015319E-16  -7.94499163303360E-17   1.10753775684983E-16
     -4.74155023859864E-15   0.00000000000000E+00   0.00000000000000E+00   0.00000000000000E+00   0.00000000000000E+00
     -2.10864060553057E-04  -1.32196096561616E-23  -2.10864060553057E-04   1.89453211463259E-15   1.80000000000000E+00
      1.80000000000000E+00   0.00000000000000E+00   0.00000000000000E+00   0.00000000000000E+00   0.00000000000000E+00
      0.00000000000000E+00   7.00798810062716E-16
      9.51236496695868E-02
      1.71222569405256E-01   1.71222569405256E-01   0.00000000000000E+00   0.00000000000000E+00   2.24560033714434E-04
     -1.21358022242223E-23   2.24560033714434E-04   2.17272829954286E-15   0.00000000000000E+00   0.00000000000000E+00
      0.00000000000000E+00   0.00000000000000E+00   3.40529467041989E-16  -7.94498742867710E-17   2.61079592755218E-16
     -4.76452780033264E-15   0.00000000000000E+00   0.00000000000000E+00   0.00000000000000E+00   0.00000000000000E+00
     -2.24560033714695E-04  -2.99203483626673E-23  -2.24560033714695E-04   1.89419247543849E-15   1.80000000000000E+00
      1.80000000000000E+00   0.00000000000000E+00   0.00000000000000E+00   0.00000000000000E+00   0.00000000000000E+00
      0.00000000000000E+00   6.97607025351282E-16
      1.05394796288627E-01
      1.89710633319528E-01   1.89710633319528E-01   0.00000000000000E+00   0.00000000000000E+00   2.38110555453447E-04
     -3.99243951342148E-23   2.38110555453447E-04   2.20167330748165E-15   0.00000000000000E+00   0.00000000000000E+00
      0.00000000000000E+00   0.00000000000000E+00   6.82133626800134E-16  -7.94498017975637E-17   6.02683825002570E-16
     -4.78962395215642E-15   0.00000000000000E+00   0.00000000000000E+00   0.00000000000000E+00   0.00000000000000E+00
     -2.38110555454049E-04  -6.46420053985989E-23  -2.38110555454049E-04   1.89380694027697E-15   1.80000000000000E+00
      1.80000000000000E+00   0.00000000000000E+00   0.00000000000000E+00   0.00000000000000E+00   0.00000000000000E+00
      0.00000000000000E+00   6.94143704397809E-16
      1.16665667845253E-01
      2.09998202121455E-01   2.09998202121455E-01   0.00000000000000E+00   0.00000000000000E+00   2.51407292654164E-04
     -1.49059679491481E-22   2.51407292654164E-04   2.23326917738805E-15   0.00000000000000E+00   0.00000000000000E+00
      0.00000000000000E+00   0.00000000000000E+00   1.52451399728602E-15  -7.94496308709595E-17   1.44506436641506E-15
     -4.81703607541809E-15   0.00000000000000E+00   0.00000000000000E+00   0.00000000000000E+00   0.00000000000000E+00
     -2.51407292655609E-04  -1.37161154925249E-22  -2.51407292655609E-04   1.89337269054056E-15   1.80000000000000E+00
      1.80000000000000E+00   0.00000000000000E+00   0.00000000000000E+00   0.00000000000000E+00   0.00000000000000E+00
      0.00000000000000E+00   6.90394207489483E-16
      1.29033570900058E-01
      2.32260427620104E-01   2.32260427620104E-01   0.00000000000000E+00   0.00000000000000E+00   2.64362425206635E-04
     -5.80357663521817E-22   2.64362425206635E-04   2.26774759563374E-15   0.00000000000000E+00   0.00000000000000E+00
      0.00000000000000E+00   0.00000000000000E+00   4.38408819454523E-15  -7.94490997916729E-17   4.30463909475356E-15
     -4.84698032463507E-15   0.00000000000000E+00   0.00000000000000E+00   0.00000000000000E+00   0.00000000000000E+00
     -2.64362425210939E-04  -2.75305434158608E-22  -2.64362425210939E-04   1.89288751518170E-15   1.80000000000000E+00
      1.80000000000000E+00   0.00000000000000E+00   0.00000000000000E+00   0.00000000000000E+00   0.00000000000000E+00
      0.00000000000000E+00   6.86345213819621E-16
      1.42605283185530E-01
      2.56689509733954E-01   2.56689509733954E-01   0.00000000000000E+00   0.00000000000000E+00   2.76921757049865E-04
     -9.90605848015649E-27   2.76921757049865E-04   2.30535680038131E-15   0.00000000000000E+00   0.00000000000000E+00
      0.00000000000000E+00   0.00000000000000E+00   8.05295211076686E-17  -7.94500155549578E-17   1.07950555271078E-18
     -4.87969128023029E-15   0.00000000000000E+00   0.00000000000000E+00   0.00000000000000E+00   0.00000000000000E+00
     -2.76921757049866E-04   2.83288538462704E-25  -2.76921757049866E-04   1.89234979701917E-15   1.80000000000000E+00
      1.80000000000000E+00   0.00000000000000E+00   0.00000000000000E+00   0.00000000000000E+00   0.00000000000000E+00
      0.00000000000000E+00   6.81984682829805E-16
      1.57461784234027E-01
      2.83431211621248E-01   2.83431211621248E-01   0.00000000000000E+00   0.00000000000000E+00   2.89047876479591E-04
      3.01713116348744E-26   2.89047876479591E-04   2.34626044449743E-15   0.00000000000000E+00   0.00000000000000E+00
      0.00000000000000E+00   0.00000000000000E+00   8.55916315054462E-17  -7.94500854730221E-17   6.14154603242411E-18
     -4.91533266028378E-15   0.00000000000000E+00   0.00000000000000E+00   0.00000000000000E+00   0.00000000000000E+00
     -2.89047876479598E-04   6.54848977060793E-25  -2.89047876479598E-04   1.89175974223908E-15   1.80000000000000E+00
      1.80000000000000E+00   0.00000000000000E+00   0.00000000000000E+00   0.00000000000000E+00   0.00000000000000E+00
      0.00000000000000E+00   6.77312473547273E-16
      1.73724700715115E-01
      3.12704461287207E-01   3.12704461287207E-01   0.00000000000000E+00   0.00000000000000E+00   3.00785207414591E-04
      1.78111688726609E-26   3.00785207414591E-04   2.39071506428670E-15   0.00000000000000E+00   0.00000000000000E+00
      0.00000000000000E+00   0.00000000000000E+00   7.08543817686793E-17  -7.94501554325928E-17  -8.59577366391349E-18
     -4.95414907148584E-15   0.00000000000000E+00   0.00000000000000E+00   0.00000000000000E+00   0.00000000000000E+00
     -3.00785207414582E-04  -1.36353473761051E-24  -3.00785207414582E-04   1.89111633849621E-15   1.80000000000000E+00
      1.80000000000000E+00   0.00000000000000E+00   0.00000000000000E+00   0.00000000000000E+00   0.00000000000000E+00
      0.00000000000000E+00   6.72317668702934E-16
      1.91527173289746E-01
      3.44748911921543E-01   3.44748911921543E-01   0.00000000000000E+00   0.00000000000000E+00   3.12221309053315E-04
     -3.26344372775282E-26   3.12221309053315E-04   2.43897723042613E-15   0.00000000000000E+00   0.00000000000000E+00
      0.00000000000000E+00   0.00000000000000E+00   7.43986217023082E-17  -7.94502284674784E-17  -5.05160676517017E-18
     -4.99638169608636E-15   0.00000000000000E+00   0.00000000000000E+00   0.00000000000000E+00   0.00000000000000E+00
     -3.12221309053309E-04  -4.38294820022306E-25  -3.12221309053309E-04   1.89041800864652E-15   1.80000000000000E+00
      1.80000000000000E+00   0.00000000000000E+00   0.00000000000000E+00   0.00000000000000E+00   0.00000000000000E+00
      0.00000000000000E+00   6.66986457013717E-16
      2.11014946601442E-01
      3.79826903882596E-01   3.79826903882596E-01   0.00000000000000E+00   0.00000000000000E+00   3.23474418248584E-04
     -5.58466638034106E-27   3.23474418248584E-04   2.49128820040181E-15   0.00000000000000E+00   0.00000000000000E+00
      0.00000000000000E+00   0.00000000000000E+00   7.71154852252148E-17  -7.94503012402027E-17  -2.33481601498786E-18
     -5.04225021186994E-15   0.00000000000000E+00   0.00000000000000E+00   0.00000000000000E+00   0.00000000000000E+00
     -3.23474418248582E-04  -2.41177233392721E-26  -3.23474418248582E-04   1.88966215419492E-15   1.80000000000000E+00
      1.80000000000000E+00   0.00000000000000E+00   0.00000000000000E+00   0.00000000000000E+00   0.00000000000000E+00
      0.00000000000000E+00   6.61299857273210E-16
      2.32347562453312E-01
      4.18225612415962E-01   4.18225612415962E-01   0.00000000000000E+00   0.00000000000000E+00   3.34678708818586E-04
     -8.54267077848889E-27   3.34678708818586E-04   2.54784688239558E-15   0.00000000000000E+00   0.00000000000000E+00
      0.00000000000000E+00   0.00000000000000E+00   8.61787409324654E-17  -7.94503749031283E-17   6.72836602933703E-18
     -5.09192348061784E-15   0.00000000000000E+00   0.00000000000000E+00   0.00000000000000E+00   0.00000000000000E+00
     -3.34678708818593E-04   3.24723437977672E-25  -3.34678708818593E-04   1.88884490509982E-15   1.80000000000000E+00
      1.80000000000000E+00   0.00000000000000E+00   0.00000000000000E+00   0.00000000000000E+00   0.00000000000000E+00
      0.00000000000000E+00   6.55231693122445E-16