DF-ISE text

Info {
  version   = 1.0
  type      = xyplot
  datasets  = [
    "time"
    "Drain_contact OuterVoltage" "Drain_contact InnerVoltage" "Drain_contact QuasiFermiPotential" "Drain_contact DisplacementCurrent" "Drain_contact eCurrent"
    "Drain_contact hCurrent" "Drain_contact TotalCurrent" "Drain_contact Charge" "Body_contact OuterVoltage" "Body_contact InnerVoltage"
    "Body_contact QuasiFermiPotential" "Body_contact DisplacementCurrent" "Body_contact eCurrent" "Body_contact hCurrent" "Body_contact TotalCurrent"
    "Body_contact Charge" "Source_contact OuterVoltage" "Source_contact InnerVoltage" "Source_contact QuasiFermiPotential" "Source_contact DisplacementCurrent"
    "Source_contact eCurrent" "Source_contact hCurrent" "Source_contact TotalCurrent" "Source_contact Charge" "Gate_contact OuterVoltage"
    "Gate_contact InnerVoltage" "Gate_contact QuasiFermiPotential" "Gate_contact DisplacementCurrent" "Gate_contact eCurrent" "Gate_contact hCurrent"
    "Gate_contact TotalCurrent" "Gate_contact Charge" ]
  functions = [
    Time
    OuterVoltage InnerVoltage QuasiFermiPotential DisplacementCurrent eCurrent
    hCurrent TotalCurrent Charge OuterVoltage InnerVoltage
    QuasiFermiPotential DisplacementCurrent eCurrent hCurrent TotalCurrent
    Charge OuterVoltage InnerVoltage QuasiFermiPotential DisplacementCurrent
    eCurrent hCurrent TotalCurrent Charge OuterVoltage
    InnerVoltage QuasiFermiPotential DisplacementCurrent eCurrent hCurrent
    TotalCurrent Charge ]
}

Data {
      0.00000000000000E+00
      1.80000000000000E+00   1.80000000000000E+00   0.00000000000000E+00   0.00000000000000E+00   1.77171309276785E-18
     -1.77169317890707E-18   1.99138607763107E-23   4.17949850982787E-15   0.00000000000000E+00   0.00000000000000E+00
      0.00000000000000E+00   0.00000000000000E+00   2.38524703798013E-05  -1.57990794837391E-17   2.38524703797855E-05
     -6.02663872559634E-15   0.00000000000000E+00   0.00000000000000E+00   0.00000000000000E+00   0.00000000000000E+00
     -2.38524703797855E-05   5.71840660043310E-24  -2.38524703797855E-05   2.03942487550260E-15   0.00000000000000E+00
      0.00000000000000E+00   0.00000000000000E+00   0.00000000000000E+00   0.00000000000000E+00   0.00000000000000E+00
      0.00000000000000E+00  -1.92284659734125E-16
      0.00000000000000E+00
      1.80000000000000E+00   1.80000000000000E+00   0.00000000000000E+00   0.00000000000000E+00   4.07295139868843E-07
     -1.42263844412564E-31   4.07295139868843E-07   4.17966549486343E-15   0.00000000000000E+00   0.00000000000000E+00
      0.00000000000000E+00   0.00000000000000E+00   8.35856121858203E-17  -7.94503630191412E-17   4.13524916667905E-18
     -6.03303526600138E-15   0.00000000000000E+00   0.00000000000000E+00   0.00000000000000E+00   0.00000000000000E+00
     -4.07295139872979E-07   4.01778510126599E-25  -4.07295139872979E-07   2.04515086814131E-15   0.00000000000000E+00
      0.00000000000000E+00   0.00000000000000E+00   0.00000000000000E+00   0.00000000000000E+00   0.00000000000000E+00
      0.00000000000000E+00  -1.91781097003359E-16
      1.00000000000000E-03
      1.80000000000000E+00   1.80000000000000E+00   0.00000000000000E+00   0.00000000000000E+00   4.16873227534688E-07
      5.14261909113483E-31   4.16873227534688E-07   4.17940903674511E-15   0.00000000000000E+00   0.00000000000000E+00
      0.00000000000000E+00   0.00000000000000E+00   8.17143836773293E-17  -7.94503616681814E-17   2.26402200914791E-18
     -6.03308725716830E-15   0.00000000000000E+00   0.00000000000000E+00   0.00000000000000E+00   0.00000000000000E+00
     -4.16873227536953E-07  -9.33478938068310E-25  -4.16873227536953E-07   2.04489298585714E-15   1.80000000000000E-03
      1.80000000000000E-03   0.00000000000000E+00   0.00000000000000E+00   0.00000000000000E+00   0.00000000000000E+00
      0.00000000000000E+00  -1.91214765433947E-16
      2.09466666666667E-03
      1.80000000000000E+00   1.80000000000000E+00   0.00000000000000E+00   0.00000000000000E+00   4.27613384835740E-07
     -1.52506997549238E-30   4.27613384835740E-07   4.17912831378889E-15   0.00000000000000E+00   0.00000000000000E+00
      0.00000000000000E+00   0.00000000000000E+00   9.52639769585529E-14  -7.94503631069844E-17   9.51845265954460E-14
     -6.03314440693151E-15   0.00000000000000E+00   0.00000000000000E+00   0.00000000000000E+00   0.00000000000000E+00
     -4.27613480020267E-07   5.21949207322078E-25  -4.27613480020267E-07   2.04461083822659E-15   3.77040000000000E-03
      3.77040000000000E-03   0.00000000000000E+00   0.00000000000000E+00   0.00000000000000E+00   0.00000000000000E+00
      0.00000000000000E+00  -1.90594745083979E-16
      3.29880000000000E-03
      1.80000000000000E+00   1.80000000000000E+00   0.00000000000000E+00   0.00000000000000E+00   4.39743375245725E-07
     -2.37168656426679E-30   4.39743375245725E-07   4.17881953517174E-15   0.00000000000000E+00   0.00000000000000E+00
      0.00000000000000E+00   0.00000000000000E+00   1.41102483854061E-13  -7.94503627143521E-17   1.41023033491346E-13
     -6.03320756103420E-15   0.00000000000000E+00   0.00000000000000E+00   0.00000000000000E+00   0.00000000000000E+00
     -4.39743516268759E-07   1.46915572066040E-25  -4.39743516268759E-07   2.04430065549374E-15   5.93784000000000E-03
      5.93784000000000E-03   0.00000000000000E+00   0.00000000000000E+00   0.00000000000000E+00   0.00000000000000E+00
      0.00000000000000E+00  -1.89912629631285E-16
      4.62334666666667E-03
      1.80000000000000E+00   1.80000000000000E+00   0.00000000000000E+00   0.00000000000000E+00   4.53478795162123E-07
     -4.99231560244605E-31   4.53478795162123E-07   4.17847989976427E-15   0.00000000000000E+00   0.00000000000000E+00
      0.00000000000000E+00   0.00000000000000E+00   7.87156959102480E-17  -7.94503636206323E-17  -7.34667710384314E-19
     -6.03327738541537E-15   0.00000000000000E+00   0.00000000000000E+00   0.00000000000000E+00   0.00000000000000E+00
     -4.53478795161388E-07   1.07155396670507E-24  -4.53478795161388E-07   2.04395967399739E-15   8.32202400000000E-03
      8.32202400000000E-03   0.00000000000000E+00   0.00000000000000E+00   0.00000000000000E+00   0.00000000000000E+00
      0.00000000000000E+00  -1.89162188346287E-16
      6.07681587555556E-03
      1.80000000000000E+00   1.80000000000000E+00   0.00000000000000E+00   0.00000000000000E+00   4.69038197781434E-07
      1.09246950161694E-33   4.69038197781434E-07   4.17810723308127E-15   0.00000000000000E+00   0.00000000000000E+00
      0.00000000000000E+00   0.00000000000000E+00   8.23941496713883E-17  -7.94503615950522E-17   2.94378807633607E-18
     -6.03335443986275E-15   0.00000000000000E+00   0.00000000000000E+00   0.00000000000000E+00   0.00000000000000E+00
     -4.69038197784379E-07  -9.35042237510021E-25  -4.69038197784379E-07   2.04358577101392E-15   1.09382685760000E-02
      1.09382685760000E-02   0.00000000000000E+00   0.00000000000000E+00   0.00000000000000E+00   0.00000000000000E+00
      0.00000000000000E+00  -1.88338564232453E-16
      7.67175608744296E-03
      1.80000000000000E+00   1.80000000000000E+00   0.00000000000000E+00   0.00000000000000E+00   4.86717573895757E-07
      2.69071128394908E-31   4.86717573895757E-07   4.17769832717583E-15   0.00000000000000E+00   0.00000000000000E+00
      0.00000000000000E+00   0.00000000000000E+00   7.99667538407507E-17  -7.94503624748805E-17   5.16391365870291E-19
     -6.03343952511229E-15   0.00000000000000E+00   0.00000000000000E+00   0.00000000000000E+00   0.00000000000000E+00
     -4.86717573896274E-07  -3.57551425761944E-26  -4.86717573896274E-07   2.04317580055531E-15   1.38091609573973E-02
      1.38091609573973E-02   0.00000000000000E+00   0.00000000000000E+00   0.00000000000000E+00   0.00000000000000E+00
      0.00000000000000E+00  -1.87434602618854E-16
      9.42193714662075E-03
      1.80000000000000E+00   1.80000000000000E+00   0.00000000000000E+00   0.00000000000000E+00   5.06872777983469E-07
      6.32491326256753E-33   5.06872777983469E-07   4.17724966393788E-15   0.00000000000000E+00   0.00000000000000E+00
      0.00000000000000E+00   0.00000000000000E+00   7.96546947217625E-17  -7.94503633293755E-17   2.04331392387049E-19
     -6.03353354260402E-15   0.00000000000000E+00   0.00000000000000E+00   0.00000000000000E+00   0.00000000000000E+00
     -5.06872777983673E-07   8.38315846016134E-25  -5.06872777983673E-07   2.04272632358896E-15   1.69594868639173E-02
      1.69594868639173E-02   0.00000000000000E+00   0.00000000000000E+00   0.00000000000000E+00   0.00000000000000E+00
      0.00000000000000E+00  -1.86442444922803E-16
      1.13424691622252E-02
      1.80000000000000E+00   1.80000000000000E+00   0.00000000000000E+00   0.00000000000000E+00   5.29934288864045E-07
     -1.84862247161004E-31   5.29934288864045E-07   4.17675738552988E-15   0.00000000000000E+00   0.00000000000000E+00
      0.00000000000000E+00   0.00000000000000E+00   8.08569900514951E-17  -7.94503639073420E-17   1.40662614415310E-18
     -6.03363750995998E-15   0.00000000000000E+00   0.00000000000000E+00   0.00000000000000E+00   0.00000000000000E+00
     -5.29934288865451E-07   1.43557963982474E-24  -5.29934288865451E-07   2.04223358267129E-15   2.04164444920053E-02
      2.04164444920053E-02   0.00000000000000E+00   0.00000000000000E+00   0.00000000000000E+00   0.00000000000000E+00
      0.00000000000000E+00  -1.85353458241187E-16
      1.34499329606818E-02
      1.80000000000000E+00   1.80000000000000E+00   0.00000000000000E+00   0.00000000000000E+00   5.56426239575184E-07
      6.66546747416645E-32   5.56426239575184E-07   4.17621726218161E-15   0.00000000000000E+00   0.00000000000000E+00
      0.00000000000000E+00   0.00000000000000E+00   7.89071081333426E-17  -7.94503609952383E-17  -5.43252861895617E-19
     -6.03375257953731E-15   0.00000000000000E+00   0.00000000000000E+00   0.00000000000000E+00   0.00000000000000E+00
     -5.56426239574640E-07  -1.45814850350729E-24  -5.56426239574640E-07   2.04169347487544E-15   2.42098793292272E-02
      2.42098793292272E-02   0.00000000000000E+00   0.00000000000000E+00   0.00000000000000E+00   0.00000000000000E+00
      0.00000000000000E+00  -1.84158157519746E-16
      1.57625232355214E-02
      1.80000000000000E+00   1.80000000000000E+00   0.00000000000000E+00   0.00000000000000E+00   5.86991120390607E-07
     -5.30114584748468E-31   5.86991120390607E-07   4.17562465716270E-15   0.00000000000000E+00   0.00000000000000E+00
      0.00000000000000E+00   0.00000000000000E+00   8.18398299547259E-17  -7.94503617930527E-17   2.38946816167312E-18
     -6.03388006075545E-15   0.00000000000000E+00   0.00000000000000E+00   0.00000000000000E+00   0.00000000000000E+00
     -5.86991120392997E-07  -6.43669478783638E-25  -5.86991120392997E-07   2.04110152304701E-15   2.83725418239386E-02
      2.83725418239386E-02   0.00000000000000E+00   0.00000000000000E+00   0.00000000000000E+00   0.00000000000000E+00
      0.00000000000000E+00  -1.82846119454262E-16
      1.83002056304455E-02
      1.80000000000000E+00   1.80000000000000E+00   0.00000000000000E+00   0.00000000000000E+00   6.22422141726851E-07
      1.28829768967814E-31   6.22422141726851E-07   4.17497448877658E-15   0.00000000000000E+00   0.00000000000000E+00
      0.00000000000000E+00   0.00000000000000E+00   8.10947192927850E-17  -7.94503622399151E-17   1.64435705286984E-18
     -6.03402144753723E-15   0.00000000000000E+00   0.00000000000000E+00   0.00000000000000E+00   0.00000000000000E+00
     -6.22422141728495E-07  -1.82943423464167E-25  -6.22422141728495E-07   2.04045284579801E-15   3.29403701348020E-02
      3.29403701348020E-02   0.00000000000000E+00   0.00000000000000E+00   0.00000000000000E+00   0.00000000000000E+00
      0.00000000000000E+00  -1.81405887037359E-16
      2.10848891118089E-02
      1.80000000000000E+00   1.80000000000000E+00   0.00000000000000E+00   0.00000000000000E+00   6.63705884799911E-07
      4.84904036819017E-31   6.63705884799911E-07   4.17426118918786E-15   0.00000000000000E+00   0.00000000000000E+00
      0.00000000000000E+00   0.00000000000000E+00   7.95308468715671E-17  -7.94503635803687E-17   8.04832911984403E-20
     -6.03417845138956E-15   0.00000000000000E+00   0.00000000000000E+00   0.00000000000000E+00   0.00000000000000E+00
     -6.63705884799991E-07   1.16719485550629E-24  -6.63705884799991E-07   2.03974212572133E-15   3.79528004012560E-02
      3.79528004012560E-02   0.00000000000000E+00   0.00000000000000E+00   0.00000000000000E+00   0.00000000000000E+00
      0.00000000000000E+00  -1.79824863519612E-16
      2.41406151186916E-02
      1.80000000000000E+00   1.80000000000000E+00   0.00000000000000E+00   0.00000000000000E+00   7.12078988320747E-07
      2.70760736134154E-31   7.12078988320747E-07   4.17347866000259E-15   0.00000000000000E+00   0.00000000000000E+00
      0.00000000000000E+00   0.00000000000000E+00   7.88781225936846E-17  -7.94503632063434E-17  -5.72240612658799E-19
     -6.03435304264793E-15   0.00000000000000E+00   0.00000000000000E+00   0.00000000000000E+00   0.00000000000000E+00
     -7.12078988320175E-07   7.96677407804703E-25  -7.12078988320175E-07   2.03896357728247E-15   4.34531072136449E-02
      4.34531072136449E-02   0.00000000000000E+00   0.00000000000000E+00   0.00000000000000E+00   0.00000000000000E+00
      0.00000000000000E+00  -1.78089194637124E-16
      2.74937651235776E-02
      1.80000000000000E+00   1.80000000000000E+00   0.00000000000000E+00   0.00000000000000E+00   7.69103966010888E-07
     -1.65715254541768E-31   7.69103966010888E-07   4.17262022478100E-15   0.00000000000000E+00   0.00000000000000E+00
      0.00000000000000E+00   0.00000000000000E+00   8.37226214227549E-17  -7.94503612036860E-17   4.27226021906895E-18
     -6.03454750183949E-15   0.00000000000000E+00   0.00000000000000E+00   0.00000000000000E+00   0.00000000000000E+00
     -7.69103966015160E-07  -1.21127757732330E-24  -7.69103966015160E-07   2.03811091381328E-15   4.94887772224397E-02
      4.94887772224397E-02   0.00000000000000E+00   0.00000000000000E+00   0.00000000000000E+00   0.00000000000000E+00
      0.00000000000000E+00  -1.76183636754793E-16
      3.11732883956059E-02
      1.80000000000000E+00   1.80000000000000E+00   0.00000000000000E+00   0.00000000000000E+00   8.36771737321119E-07
     -2.02923487009365E-31   8.36771737321119E-07   4.17167857817453E-15   0.00000000000000E+00   0.00000000000000E+00
      0.00000000000000E+00   0.00000000000000E+00   8.04233130337821E-17  -7.94503637249072E-17   9.72949308874945E-19
     -6.03476448393606E-15   0.00000000000000E+00   0.00000000000000E+00   0.00000000000000E+00   0.00000000000000E+00
     -8.36771737322093E-07   1.29239876795859E-24  -8.36771737322093E-07   2.03717731529582E-15   5.61119191120905E-02
      5.61119191120905E-02   0.00000000000000E+00   0.00000000000000E+00   0.00000000000000E+00   0.00000000000000E+00
      0.00000000000000E+00  -1.74091409534301E-16
      3.52109519327782E-02
      1.80000000000000E+00   1.80000000000000E+00   0.00000000000000E+00   0.00000000000000E+00   9.17640856569708E-07
     -1.90981876503014E-31   9.17640856569708E-07   4.17064573290183E-15   0.00000000000000E+00   0.00000000000000E+00
      0.00000000000000E+00   0.00000000000000E+00   7.74990183127604E-17  -7.94503617339048E-17  -1.95134342114442E-18
     -6.03500710102381E-15   0.00000000000000E+00   0.00000000000000E+00   0.00000000000000E+00   0.00000000000000E+00
     -9.17640856567757E-07  -7.33109231855262E-25  -9.17640856567757E-07   2.03615539752747E-15   6.33797134790007E-02
      6.33797134790007E-02   0.00000000000000E+00   0.00000000000000E+00   0.00000000000000E+00   0.00000000000000E+00
      0.00000000000000E+00  -1.71794029405500E-16
      3.96416147209019E-02
      1.80000000000000E+00   1.80000000000000E+00   0.00000000000000E+00   0.00000000000000E+00   1.01502852981431E-06
      5.53226671043441E-31   1.01502852981431E-06   4.16951296383313E-15   0.00000000000000E+00   0.00000000000000E+00
      0.00000000000000E+00   0.00000000000000E+00   7.69806650540481E-17  -7.94503614184009E-17  -2.46969636435272E-18
     -6.03527902598038E-15   0.00000000000000E+00   0.00000000000000E+00   0.00000000000000E+00   0.00000000000000E+00
     -1.01502852981184E-06  -1.10619655685640E-24  -1.01502852981184E-06   2.03503718429304E-15   7.13549064976235E-02
      7.13549064976235E-02   0.00000000000000E+00   0.00000000000000E+00   0.00000000000000E+00   0.00000000000000E+00
      0.00000000000000E+00  -1.69271122145806E-16
      4.45035286870697E-02
      1.80000000000000E+00   1.80000000000000E+00   0.00000000000000E+00   0.00000000000000E+00   1.13327428507639E-06
      2.81791793712823E-31   1.13327428507639E-06   4.16827075167673E-15   0.00000000000000E+00   0.00000000000000E+00
      0.00000000000000E+00   0.00000000000000E+00   7.84414392331871E-17  -7.94503614230963E-17  -1.00892218990921E-18
     -6.03558462862556E-15   0.00000000000000E+00   0.00000000000000E+00   0.00000000000000E+00   0.00000000000000E+00
     -1.13327428507538E-06  -1.19085772583772E-24  -1.13327428507538E-06   2.03381408531192E-15   8.01063516367255E-02
      8.01063516367255E-02   0.00000000000000E+00   0.00000000000000E+00   0.00000000000000E+00   0.00000000000000E+00
      0.00000000000000E+00  -1.66500208363087E-16
      4.98386689459445E-02
      1.80000000000000E+00   1.80000000000000E+00   0.00000000000000E+00   0.00000000000000E+00   1.27810575765978E-06
      2.23867825202454E-31   1.27810575765978E-06   4.16690872785952E-15   0.00000000000000E+00   0.00000000000000E+00
      0.00000000000000E+00   0.00000000000000E+00   7.38919068269342E-17  -7.94503630040221E-17  -5.55845617708794E-18
     -6.03592915328970E-15   0.00000000000000E+00   0.00000000000000E+00   0.00000000000000E+00   0.00000000000000E+00
     -1.27810575765422E-06   2.57609913402505E-25  -1.27810575765422E-06   2.03247688211596E-15   8.97096041027001E-02
      8.97096041027001E-02   0.00000000000000E+00   0.00000000000000E+00   0.00000000000000E+00   0.00000000000000E+00
      0.00000000000000E+00  -1.63456456685785E-16
      5.56930961900164E-02
      1.80000000000000E+00   1.80000000000000E+00   0.00000000000000E+00   0.00000000000000E+00   1.45715013996369E-06
     -3.20271538919603E-31   1.45715013996369E-06   4.16541562090123E-15   0.00000000000000E+00   0.00000000000000E+00
      0.00000000000000E+00   0.00000000000000E+00   6.25260530066471E-17  -7.94503622672334E-17  -1.69243092605863E-17
     -6.03631894598110E-15   0.00000000000000E+00   0.00000000000000E+00   0.00000000000000E+00   0.00000000000000E+00
     -1.45715013994677E-06  -6.70338918006921E-25  -1.45715013994677E-06   2.03101572570967E-15   1.00247573142030E-01
      1.00247573142030E-01   0.00000000000000E+00   0.00000000000000E+00   0.00000000000000E+00   0.00000000000000E+00
      0.00000000000000E+00  -1.60112400629801E-16
      6.21173543525114E-02
      1.80000000000000E+00   1.80000000000000E+00   0.00000000000000E+00   0.00000000000000E+00   1.68065015040824E-06
      1.22459127907654E-31   1.68065015040824E-06   4.16377921369729E-15   0.00000000000000E+00   0.00000000000000E+00
      0.00000000000000E+00   0.00000000000000E+00   4.28786400028919E-17  -7.94503626329132E-17  -3.65717226300213E-17
     -6.03676176530669E-15   0.00000000000000E+00   0.00000000000000E+00   0.00000000000000E+00   0.00000000000000E+00
     -1.68065015037167E-06  -5.75962827209698E-25  -1.68065015037167E-06   2.02942015331450E-15   1.11811237834520E-01
      1.11811237834520E-01   0.00000000000000E+00   0.00000000000000E+00   0.00000000000000E+00   0.00000000000000E+00
      0.00000000000000E+00  -1.56437601705093E-16
      6.91669069761558E-02
      1.80000000000000E+00   1.80000000000000E+00   0.00000000000000E+00   0.00000000000000E+00   1.96246897896254E-06
     -1.72567510982481E-31   1.96246897896254E-06   4.16198631104463E-15   0.00000000000000E+00   0.00000000000000E+00
      0.00000000000000E+00   0.00000000000000E+00  -2.68337646003841E-18  -7.94503627020544E-17  -8.21337391620928E-17
     -6.03726718274706E-15   0.00000000000000E+00   0.00000000000000E+00   0.00000000000000E+00   0.00000000000000E+00
     -1.96246897888040E-06  -8.87419454015253E-25  -1.96246897888040E-06   2.02767912741423E-15   1.24500432557080E-01
      1.24500432557080E-01   0.00000000000000E+00   0.00000000000000E+00   0.00000000000000E+00   0.00000000000000E+00
      0.00000000000000E+00  -1.52398255711806E-16
      7.69026160551683E-02
      1.80000000000000E+00   1.80000000000000E+00   0.00000000000000E+00   0.00000000000000E+00   2.32149677457051E-06
     -3.14613362486704E-31   2.32149677457051E-06   4.16002272885784E-15   0.00000000000000E+00   0.00000000000000E+00
      0.00000000000000E+00   0.00000000000000E+00  -1.08169909678065E-16  -7.94503632533998E-17  -1.87620272931465E-16
     -6.03784711459387E-15   0.00000000000000E+00   0.00000000000000E+00   0.00000000000000E+00   0.00000000000000E+00
     -2.32149677438288E-06  -8.66399379231086E-25  -2.32149677438288E-06   2.02578110653561E-15   1.38424708899303E-01
      1.38424708899303E-01   0.00000000000000E+00   0.00000000000000E+00   0.00000000000000E+00   0.00000000000000E+00
      0.00000000000000E+00  -1.47956720799586E-16
      8.53912674845381E-02
      1.80000000000000E+00   1.80000000000000E+00   0.00000000000000E+00   0.00000000000000E+00   2.78360592029143E-06
     -3.84389045368575E-31   2.78360592029143E-06   4.15787331174420E-15   0.00000000000000E+00   0.00000000000000E+00
      0.00000000000000E+00   0.00000000000000E+00  -3.67204572026043E-16  -7.94503626353337E-17  -4.46654934661377E-16
     -6.03851651356430E-15   0.00000000000000E+00   0.00000000000000E+00   0.00000000000000E+00   0.00000000000000E+00
     -2.78360591984477E-06  -2.22021670369743E-24  -2.78360591984477E-06   2.02371415394060E-15   1.53704281472169E-01
      1.53704281472169E-01   0.00000000000000E+00   0.00000000000000E+00   0.00000000000000E+00   0.00000000000000E+00
      0.00000000000000E+00  -1.43070952120498E-16
      9.47061476530331E-02
      1.80000000000000E+00   1.80000000000000E+00   0.00000000000000E+00   0.00000000000000E+00   3.38432713982484E-06
     -3.79473061543058E-32   3.38432713982484E-06   4.15552200200751E-15   0.00000000000000E+00   0.00000000000000E+00
      0.00000000000000E+00   0.00000000000000E+00  -1.11046135183573E-15  -7.94503665015334E-17  -1.18991171833727E-15
     -6.03929429111347E-15   0.00000000000000E+00   0.00000000000000E+00   0.00000000000000E+00   0.00000000000000E+00
     -3.38432713863493E-06   6.27141980519955E-25  -3.38432713863493E-06   2.02146609626285E-15   1.70471065775460E-01
      1.70471065775460E-01   0.00000000000000E+00   0.00000000000000E+00   0.00000000000000E+00   0.00000000000000E+00
      0.00000000000000E+00  -1.37693807156879E-16
      1.04927676157928E-01
      1.80000000000000E+00   1.80000000000000E+00   0.00000000000000E+00   0.00000000000000E+00   4.17242974005835E-06
      2.45460702428211E-31   4.17242974005835E-06   4.15295195289679E-15   0.00000000000000E+00   0.00000000000000E+00
      0.00000000000000E+00   0.00000000000000E+00  -3.16060210785462E-15  -7.94503682468717E-17  -3.24005247610149E-15
     -6.04020445542159E-15   0.00000000000000E+00   0.00000000000000E+00   0.00000000000000E+00   0.00000000000000E+00
     -4.17242973681830E-06   9.63354783262525E-25  -4.17242973681830E-06   2.01902472422402E-15   1.88869817084271E-01
      1.88869817084271E-01   0.00000000000000E+00   0.00000000000000E+00   0.00000000000000E+00   0.00000000000000E+00
      0.00000000000000E+00  -1.31772221699224E-16
      1.16144100103967E-01
      1.80000000000000E+00   1.80000000000000E+00   0.00000000000000E+00   0.00000000000000E+00   5.21452551480307E-06
     -1.54293644242843E-31   5.21452551480307E-06   4.15014570423450E-15   0.00000000000000E+00   0.00000000000000E+00
      0.00000000000000E+00   0.00000000000000E+00  -7.81384077639947E-15  -7.94503691955994E-17  -7.89329114559507E-15
     -6.04127750432858E-15   0.00000000000000E+00   0.00000000000000E+00   0.00000000000000E+00   0.00000000000000E+00
     -5.21452550690978E-06  -3.42788151198325E-26  -5.21452550690978E-06   2.01637803005527E-15   2.09059380187140E-01
      2.09059380187140E-01   0.00000000000000E+00   0.00000000000000E+00   0.00000000000000E+00   0.00000000000000E+00
      0.00000000000000E+00  -1.25246229961191E-16
      1.28452255980753E-01
      1.80000000000000E+00   1.80000000000000E+00   0.00000000000000E+00   0.00000000000000E+00   6.60064080250241E-06
     -4.51781062427598E-32   6.60064080250241E-06   4.14708540536086E-15   0.00000000000000E+00   0.00000000000000E+00
      0.00000000000000E+00   0.00000000000000E+00  -1.70301283001859E-14  -7.94503698484692E-17  -1.71095786700344E-14
     -6.04255201293085E-15   0.00000000000000E+00   0.00000000000000E+00   0.00000000000000E+00   0.00000000000000E+00
     -6.60064078539284E-06  -2.06211298115676E-24  -6.60064078539284E-06   2.01351444761388E-15   2.31214060765355E-01
      2.31214060765355E-01   0.00000000000000E+00   0.00000000000000E+00   0.00000000000000E+00   0.00000000000000E+00
      0.00000000000000E+00  -1.18047840043892E-16
      1.41958405696213E-01
      1.80000000000000E+00   1.80000000000000E+00   0.00000000000000E+00   0.00000000000000E+00   8.45033849820426E-06
     -1.24907236280057E-30   8.45033849820426E-06   4.14375305303558E-15   0.00000000000000E+00   0.00000000000000E+00
      0.00000000000000E+00   0.00000000000000E+00  -3.57962617851009E-14  -7.94503751958560E-17  -3.58757121602967E-14
     -6.04407627884582E-15   0.00000000000000E+00   0.00000000000000E+00   0.00000000000000E+00   0.00000000000000E+00
     -8.45033846232857E-06  -3.96237219093635E-25  -8.45033846232857E-06   2.01042303363569E-15   2.55525130253183E-01
      2.55525130253183E-01   0.00000000000000E+00   0.00000000000000E+00   0.00000000000000E+00   0.00000000000000E+00
      0.00000000000000E+00  -1.10099807825445E-16
      1.56779153983978E-01
      1.80000000000000E+00   1.80000000000000E+00   0.00000000000000E+00   0.00000000000000E+00   1.09184630244110E-05
     -2.73259200340377E-33   1.09184630244110E-05   4.14013060789309E-15   0.00000000000000E+00   0.00000000000000E+00
      0.00000000000000E+00   0.00000000000000E+00   7.89244170478414E-17  -7.94503799792608E-17  -5.25962931419372E-19
     -6.04590959693405E-15   0.00000000000000E+00   0.00000000000000E+00   0.00000000000000E+00   0.00000000000000E+00
     -1.09184630244105E-05  -6.38469006700007E-25  -1.09184630244105E-05   2.00709347207909E-15   2.82202477171160E-01
      2.82202477171160E-01   0.00000000000000E+00   0.00000000000000E+00   0.00000000000000E+00   0.00000000000000E+00
      0.00000000000000E+00  -1.01314483038121E-16
      1.73002933109651E-01
      1.80000000000000E+00   1.80000000000000E+00   0.00000000000000E+00   0.00000000000000E+00   1.41902521596464E-05
      1.50031454954122E-31   1.41902521596464E-05   4.13620941428902E-15   0.00000000000000E+00   0.00000000000000E+00
      0.00000000000000E+00   0.00000000000000E+00   7.88248798020263E-17  -7.94503881211762E-17  -6.25508319149892E-19
     -6.04811726255233E-15   0.00000000000000E+00   0.00000000000000E+00   0.00000000000000E+00   0.00000000000000E+00
     -1.41902521596458E-05   7.35975052393016E-25  -1.41902521596458E-05   2.00352440592771E-15   3.11405279597371E-01
      3.11405279597371E-01   0.00000000000000E+00   0.00000000000000E+00   0.00000000000000E+00   0.00000000000000E+00
      0.00000000000000E+00  -9.16165576643977E-17
      1.90762563325888E-01
      1.80000000000000E+00   1.80000000000000E+00   0.00000000000000E+00   0.00000000000000E+00   1.84918634550105E-05
      7.94799712527285E-32   1.84918634550105E-05   4.13197223104537E-15   0.00000000000000E+00   0.00000000000000E+00
      0.00000000000000E+00   0.00000000000000E+00   8.24629490215178E-17  -7.94503956343050E-17   3.01255338721284E-18
     -6.05077857554472E-15   0.00000000000000E+00   0.00000000000000E+00   0.00000000000000E+00   0.00000000000000E+00
     -1.84918634550136E-05  -7.78767203409045E-25  -1.84918634550136E-05   1.99970661804147E-15   3.43372613986598E-01
      3.43372613986598E-01   0.00000000000000E+00   0.00000000000000E+00   0.00000000000000E+00   0.00000000000000E+00
      0.00000000000000E+00  -8.09002735421304E-17
      2.10203438535928E-01
      1.80000000000000E+00   1.80000000000000E+00   0.00000000000000E+00   0.00000000000000E+00   2.40814550296172E-05
      5.71393205162575E-32   2.40814550296172E-05   4.12740057772547E-15   0.00000000000000E+00   0.00000000000000E+00
      0.00000000000000E+00   0.00000000000000E+00   8.49678656147987E-17  -7.94504087833333E-17   5.51745683146540E-18
     -6.05398156313534E-15   0.00000000000000E+00   0.00000000000000E+00   0.00000000000000E+00   0.00000000000000E+00
     -2.40814550296227E-05   5.11241390246012E-25  -2.40814550296227E-05   1.99562966912491E-15   3.78366189364671E-01
      3.78366189364671E-01   0.00000000000000E+00   0.00000000000000E+00   0.00000000000000E+00   0.00000000000000E+00
      0.00000000000000E+00  -6.90486837150473E-17
      2.31484716599186E-01
      1.80000000000000E+00   1.80000000000000E+00   0.00000000000000E+00   0.00000000000000E+00   3.12403018498912E-05
      2.46064667909519E-32   3.12403018498912E-05   4.12247377344761E-15   0.00000000000000E+00   0.00000000000000E+00
      0.00000000000000E+00   0.00000000000000E+00   8.43073382861547E-17  -7.94504230084444E-17   4.85691527771023E-18
     -6.05782077052902E-15   0.00000000000000E+00   0.00000000000000E+00   0.00000000000000E+00   0.00000000000000E+00
     -3.12403018498960E-05  -5.83377134646820E-25  -3.12403018498960E-05   1.99128080272115E-15   4.16672489878535E-01
      4.16672489878535E-01   0.00000000000000E+00   0.00000000000000E+00   0.00000000000000E+00   0.00000000000000E+00
      0.00000000000000E+00  -5.59338056397480E-17