DF-ISE text

Info {
  version   = 1.0
  type      = xyplot
  datasets  = [
    "time"
    "Drain_contact OuterVoltage" "Drain_contact InnerVoltage" "Drain_contact QuasiFermiPotential" "Drain_contact DisplacementCurrent" "Drain_contact eCurrent"
    "Drain_contact hCurrent" "Drain_contact TotalCurrent" "Drain_contact Charge" "Body_contact OuterVoltage" "Body_contact InnerVoltage"
    "Body_contact QuasiFermiPotential" "Body_contact DisplacementCurrent" "Body_contact eCurrent" "Body_contact hCurrent" "Body_contact TotalCurrent"
    "Body_contact Charge" "Source_contact OuterVoltage" "Source_contact InnerVoltage" "Source_contact QuasiFermiPotential" "Source_contact DisplacementCurrent"
    "Source_contact eCurrent" "Source_contact hCurrent" "Source_contact TotalCurrent" "Source_contact Charge" "Gate_contact OuterVoltage"
    "Gate_contact InnerVoltage" "Gate_contact QuasiFermiPotential" "Gate_contact DisplacementCurrent" "Gate_contact eCurrent" "Gate_contact hCurrent"
    "Gate_contact TotalCurrent" "Gate_contact Charge" ]
  functions = [
    Time
    OuterVoltage InnerVoltage QuasiFermiPotential DisplacementCurrent eCurrent
    hCurrent TotalCurrent Charge OuterVoltage InnerVoltage
    QuasiFermiPotential DisplacementCurrent eCurrent hCurrent TotalCurrent
    Charge OuterVoltage InnerVoltage QuasiFermiPotential DisplacementCurrent
    eCurrent hCurrent TotalCurrent Charge OuterVoltage
    InnerVoltage QuasiFermiPotential DisplacementCurrent eCurrent hCurrent
    TotalCurrent Charge ]
}

Data {
      0.00000000000000E+00
      1.80000000000000E+00   1.80000000000000E+00   0.00000000000000E+00   0.00000000000000E+00   1.78053183319226E-18
     -1.78053339654128E-18  -1.56334901947839E-24   3.12654061931484E-15   0.00000000000000E+00   0.00000000000000E+00
      0.00000000000000E+00   0.00000000000000E+00   1.29085725160864E-05  -1.53555843693242E-17   1.29085725160710E-05
     -4.73418541900187E-15   0.00000000000000E+00   0.00000000000000E+00   0.00000000000000E+00   0.00000000000000E+00
     -1.29085725160710E-05   2.95597390142752E-24  -1.29085725160710E-05   1.66473729024312E-15   0.00000000000000E+00
      0.00000000000000E+00   0.00000000000000E+00   0.00000000000000E+00   0.00000000000000E+00   0.00000000000000E+00
      0.00000000000000E+00  -5.70924905560763E-17
      0.00000000000000E+00
      1.80000000000000E+00   1.80000000000000E+00   0.00000000000000E+00   0.00000000000000E+00   1.40823876561769E-11
     -2.75865156796903E-33   1.40823876561769E-11   3.12654318573810E-15   0.00000000000000E+00   0.00000000000000E+00
      0.00000000000000E+00   0.00000000000000E+00   8.14273669078447E-17  -7.72188541551703E-17   4.20851275267439E-18
     -4.73941146001362E-15   0.00000000000000E+00   0.00000000000000E+00   0.00000000000000E+00   0.00000000000000E+00
     -1.40823918646898E-11   6.41255000538313E-26  -1.40823918646897E-11   1.66994898856382E-15   0.00000000000000E+00
      0.00000000000000E+00   0.00000000000000E+00   0.00000000000000E+00   0.00000000000000E+00   0.00000000000000E+00
      0.00000000000000E+00  -5.70807142882980E-17
      1.00000000000000E-03
      1.80000000000000E+00   1.80000000000000E+00   0.00000000000000E+00   0.00000000000000E+00   1.45821057851537E-11
     -1.32102867468112E-34   1.45821057851537E-11   3.12638742753284E-15   0.00000000000000E+00   0.00000000000000E+00
      0.00000000000000E+00   0.00000000000000E+00   7.16329875932898E-17  -7.72188540314772E-17  -5.58586643818739E-18
     -4.73950506946958E-15   0.00000000000000E+00   0.00000000000000E+00   0.00000000000000E+00   0.00000000000000E+00
     -1.45821001992873E-11  -7.66841376428273E-27  -1.45821001992873E-11   1.66974597842529E-15   1.80000000000000E-03
      1.80000000000000E-03   0.00000000000000E+00   0.00000000000000E+00   0.00000000000000E+00   0.00000000000000E+00
      0.00000000000000E+00  -5.66283364885508E-17
      2.09466666666667E-03
      1.80000000000000E+00   1.80000000000000E+00   0.00000000000000E+00   0.00000000000000E+00   1.51494466173439E-11
     -4.54710170991870E-30   1.51494466173439E-11   3.12621692019258E-15   0.00000000000000E+00   0.00000000000000E+00
      0.00000000000000E+00   0.00000000000000E+00   2.98477989229923E-19  -7.72186661512248E-17  -7.69201881619949E-17
     -4.73960748413792E-15   0.00000000000000E+00   0.00000000000000E+00   0.00000000000000E+00   0.00000000000000E+00
     -1.51493696969679E-11  -1.87831116506641E-22  -1.51493696971557E-11   1.66952364356340E-15   3.77040000000000E-03
      3.77040000000000E-03   0.00000000000000E+00   0.00000000000000E+00   0.00000000000000E+00   0.00000000000000E+00
      0.00000000000000E+00  -5.61330796180573E-17
      3.29880000000000E-03
      1.80000000000000E+00   1.80000000000000E+00   0.00000000000000E+00   0.00000000000000E+00   1.57990018150137E-11
      1.77453079191822E-34   1.57990018150137E-11   3.12602935728957E-15   0.00000000000000E+00   0.00000000000000E+00
      0.00000000000000E+00   0.00000000000000E+00   7.88010310042509E-17  -7.72188540396676E-17   1.58217696458330E-18
     -4.73972007215321E-15   0.00000000000000E+00   0.00000000000000E+00   0.00000000000000E+00   0.00000000000000E+00
     -1.57990033971908E-11   1.19786456197213E-25  -1.57990033971907E-11   1.66927894653089E-15   5.93784000000000E-03
      5.93784000000000E-03   0.00000000000000E+00   0.00000000000000E+00   0.00000000000000E+00   0.00000000000000E+00
      0.00000000000000E+00  -5.55882316672433E-17
      4.62013564444444E-03
      1.80000000000000E+00   1.80000000000000E+00   0.00000000000000E+00   0.00000000000000E+00   1.65438123572724E-11
     -1.49495147948844E-33   1.65438123572724E-11   3.12582353248259E-15   0.00000000000000E+00   0.00000000000000E+00
      0.00000000000000E+00   0.00000000000000E+00   7.47719951788358E-17  -7.72188538969310E-17  -2.44685871809519E-18
     -4.73984353670394E-15   0.00000000000000E+00   0.00000000000000E+00   0.00000000000000E+00   0.00000000000000E+00
     -1.65438099104138E-11   4.55762521926357E-26  -1.65438099104137E-11   1.66901027692383E-15   8.31624416000000E-03
      8.31624416000000E-03   0.00000000000000E+00   0.00000000000000E+00   0.00000000000000E+00   0.00000000000000E+00
      0.00000000000000E+00  -5.49902727024795E-17
      6.07008129161482E-03
      1.80000000000000E+00   1.80000000000000E+00   0.00000000000000E+00   0.00000000000000E+00   1.74015050783870E-11
     -2.51277256179410E-33   1.74015050783870E-11   3.12559766715203E-15   0.00000000000000E+00   0.00000000000000E+00
      0.00000000000000E+00   0.00000000000000E+00   7.91277033318810E-17  -7.72188537114658E-17   1.90884962041523E-18
     -4.73997891981204E-15   0.00000000000000E+00   0.00000000000000E+00   0.00000000000000E+00   0.00000000000000E+00
     -1.74015069872365E-11  -6.47145906684234E-26  -1.74015069872366E-11   1.66871526933840E-15   1.09261463249067E-02
      1.09261463249067E-02   0.00000000000000E+00   0.00000000000000E+00   0.00000000000000E+00   0.00000000000000E+00
      0.00000000000000E+00  -5.43340166783940E-17
      7.66115498177644E-03
      1.80000000000000E+00   1.80000000000000E+00   0.00000000000000E+00   0.00000000000000E+00   1.83938301838554E-11
      2.11552459942311E-34   1.83938301838554E-11   3.12534980934596E-15   0.00000000000000E+00   0.00000000000000E+00
      0.00000000000000E+00   0.00000000000000E+00   7.45468145822935E-17  -7.72188536516220E-17  -2.67203906932851E-18
     -4.74012736156866E-15   0.00000000000000E+00   0.00000000000000E+00   0.00000000000000E+00   0.00000000000000E+00
     -1.83938275118163E-11  -4.20932962293272E-26  -1.83938275118163E-11   1.66839132147956E-15   1.37900789671976E-02
      1.37900789671976E-02   0.00000000000000E+00   0.00000000000000E+00   0.00000000000000E+00   0.00000000000000E+00
      0.00000000000000E+00  -5.36137692568533E-17
      9.40709317778046E-03
      1.80000000000000E+00   1.80000000000000E+00   0.00000000000000E+00   0.00000000000000E+00   1.95478418266240E-11
      2.61802999492092E-33   1.95478418266240E-11   3.12507781687086E-15   0.00000000000000E+00   0.00000000000000E+00
      0.00000000000000E+00   0.00000000000000E+00   7.71724172028987E-17  -7.72188536433784E-17  -4.64364404796747E-20
     -4.74029010900823E-15   0.00000000000000E+00   0.00000000000000E+00   0.00000000000000E+00   0.00000000000000E+00
     -1.95478417801876E-11   4.01231702305261E-26  -1.95478417801875E-11   1.66803556970821E-15   1.69327677200048E-02
      1.69327677200048E-02   0.00000000000000E+00   0.00000000000000E+00   0.00000000000000E+00   0.00000000000000E+00
      0.00000000000000E+00  -5.28232775708413E-17
      1.13229693581955E-02
      1.80000000000000E+00   1.80000000000000E+00   0.00000000000000E+00   0.00000000000000E+00   2.08974790841020E-11
      5.76708693256264E-34   2.08974790841020E-11   3.12477933873060E-15   0.00000000000000E+00   0.00000000000000E+00
      0.00000000000000E+00   0.00000000000000E+00   7.77192933492753E-17  -7.72188534809328E-17   5.00439868342560E-19
     -4.74046852571449E-15   0.00000000000000E+00   0.00000000000000E+00   0.00000000000000E+00   0.00000000000000E+00
     -2.08974795845419E-11  -2.30954411584385E-26  -2.08974795845419E-11   1.66764486191302E-15   2.03813448447520E-02
      2.03813448447520E-02   0.00000000000000E+00   0.00000000000000E+00   0.00000000000000E+00   0.00000000000000E+00
      0.00000000000000E+00  -5.19556749291326E-17
      1.34253241535043E-02
      1.80000000000000E+00   1.80000000000000E+00   0.00000000000000E+00   0.00000000000000E+00   2.24857046809676E-11
     -1.50515550736156E-33   2.24857046809676E-11   3.12445179475187E-15   0.00000000000000E+00   0.00000000000000E+00
      0.00000000000000E+00   0.00000000000000E+00   8.00972651274020E-17  -7.72188534749916E-17   2.87841165241040E-18
     -4.74066410220418E-15   0.00000000000000E+00   0.00000000000000E+00   0.00000000000000E+00   0.00000000000000E+00
     -2.24857075593793E-11   7.98027769835168E-26  -2.24857075593792E-11   1.66721572738194E-15   2.41655834763078E-02
      2.41655834763078E-02   0.00000000000000E+00   0.00000000000000E+00   0.00000000000000E+00   0.00000000000000E+00
      0.00000000000000E+00  -5.10034199296424E-17
      1.57323081488899E-02
      1.80000000000000E+00   1.80000000000000E+00   0.00000000000000E+00   0.00000000000000E+00   2.43674294019409E-11
      1.15462381941088E-33   2.43674294019409E-11   3.12409235321920E-15   0.00000000000000E+00   0.00000000000000E+00
      0.00000000000000E+00   0.00000000000000E+00   7.54319054549750E-17  -7.72188533008608E-17  -1.78694784588578E-18
     -4.74087846713481E-15   0.00000000000000E+00   0.00000000000000E+00   0.00000000000000E+00   0.00000000000000E+00
     -2.43674276149931E-11   2.50504648444983E-26  -2.43674276149930E-11   1.66674434330383E-15   2.83181546680018E-02
      2.83181546680018E-02   0.00000000000000E+00   0.00000000000000E+00   0.00000000000000E+00   0.00000000000000E+00
      0.00000000000000E+00  -4.99582293882116E-17
      1.82638385864929E-02
      1.80000000000000E+00   1.80000000000000E+00   0.00000000000000E+00   0.00000000000000E+00   2.66135564627443E-11
     -9.05714916872904E-34   2.66135564627443E-11   3.12369790632495E-15   0.00000000000000E+00   0.00000000000000E+00
      0.00000000000000E+00   0.00000000000000E+00   8.25215791117326E-17  -7.72188531697789E-17   5.30272594195369E-18
     -4.74111339938213E-15   0.00000000000000E+00   0.00000000000000E+00   0.00000000000000E+00   0.00000000000000E+00
     -2.66135617654702E-11   2.49007502536710E-26  -2.66135617654702E-11   1.66622649747699E-15   3.28749094556873E-02
      3.28749094556873E-02   0.00000000000000E+00   0.00000000000000E+00   0.00000000000000E+00   0.00000000000000E+00
      0.00000000000000E+00  -4.88110044197988E-17
      2.10417713200227E-02
      1.80000000000000E+00   1.80000000000000E+00   0.00000000000000E+00   0.00000000000000E+00   2.93166424725253E-11
     -1.53014371039621E-34   2.93166424725253E-11   3.12326504322150E-15   0.00000000000000E+00   0.00000000000000E+00
      0.00000000000000E+00   0.00000000000000E+00   8.25111795129228E-17  -7.72188530422765E-17   5.29232647064629E-18
     -4.74137084103221E-15   0.00000000000000E+00   0.00000000000000E+00   0.00000000000000E+00   0.00000000000000E+00
     -2.93166477648518E-11   4.09957199363525E-26  -2.93166477648517E-11   1.66565754673991E-15   3.78751883760409E-02
      3.78751883760409E-02   0.00000000000000E+00   0.00000000000000E+00   0.00000000000000E+00   0.00000000000000E+00
      0.00000000000000E+00  -4.75517489291997E-17
      2.40900895062827E-02
      1.80000000000000E+00   1.80000000000000E+00   0.00000000000000E+00   0.00000000000000E+00   3.25989230019943E-11
     -2.83109586814285E-34   3.25989230019943E-11   3.12279002044201E-15   0.00000000000000E+00   0.00000000000000E+00
      0.00000000000000E+00   0.00000000000000E+00   8.10392945202235E-17  -7.72188528755425E-17   3.82044164468091E-18
     -4.74165291133148E-15   0.00000000000000E+00   0.00000000000000E+00   0.00000000000000E+00   0.00000000000000E+00
     -3.25989268224360E-11   3.17413120673176E-26  -3.25989268224360E-11   1.66503237056625E-15   4.33621611113089E-02
      4.33621611113089E-02   0.00000000000000E+00   0.00000000000000E+00   0.00000000000000E+00   0.00000000000000E+00
      0.00000000000000E+00  -4.61694796767861E-17
      2.74351106626720E-02
      1.80000000000000E+00   1.80000000000000E+00   0.00000000000000E+00   0.00000000000000E+00   3.66238458708808E-11
     -5.92871210329664E-34   3.66238458708808E-11   3.12226872943406E-15   0.00000000000000E+00   0.00000000000000E+00
      0.00000000000000E+00   0.00000000000000E+00   7.81075539724556E-17  -7.72188526211656E-17   8.88701351289964E-19
     -4.74196192163674E-15   0.00000000000000E+00   0.00000000000000E+00   0.00000000000000E+00   0.00000000000000E+00
     -3.66238467595821E-11  -4.99415662292406E-26  -3.66238467595821E-11   1.66434531918160E-15   4.93831991928096E-02
      4.93831991928096E-02   0.00000000000000E+00   0.00000000000000E+00   0.00000000000000E+00   0.00000000000000E+00
      0.00000000000000E+00  -4.46521269789065E-17
      3.11057138782832E-02
      1.80000000000000E+00   1.80000000000000E+00   0.00000000000000E+00   0.00000000000000E+00   4.16128860617618E-11
     -3.71299524703752E-33   4.16128860617618E-11   3.12169666092647E-15   0.00000000000000E+00   0.00000000000000E+00
      0.00000000000000E+00   0.00000000000000E+00   7.94381225750840E-17  -7.72188524689513E-17   2.21927010613271E-18
     -4.74230039140595E-15   0.00000000000000E+00   0.00000000000000E+00   0.00000000000000E+00   0.00000000000000E+00
     -4.16128882810320E-11  -1.27890644322689E-26  -4.16128882810320E-11   1.66359015545919E-15   5.59902849809097E-02
      5.59902849809097E-02   0.00000000000000E+00   0.00000000000000E+00   0.00000000000000E+00   0.00000000000000E+00
      0.00000000000000E+00  -4.29864249796991E-17
      3.51335891402139E-02
      1.80000000000000E+00   1.80000000000000E+00   0.00000000000000E+00   0.00000000000000E+00   4.78704401879083E-11
     -1.16497826767082E-33   4.78704401879083E-11   3.12106886582342E-15   0.00000000000000E+00   0.00000000000000E+00
      0.00000000000000E+00   0.00000000000000E+00   7.56339983175498E-17  -7.72188522533498E-17  -1.58485393580007E-18
     -4.74267106527135E-15   0.00000000000000E+00   0.00000000000000E+00   0.00000000000000E+00   0.00000000000000E+00
     -4.78704386030543E-11  -2.07552685523100E-26  -4.78704386030543E-11   1.66275998973542E-15   6.32404604523849E-02
      6.32404604523849E-02   0.00000000000000E+00   0.00000000000000E+00   0.00000000000000E+00   0.00000000000000E+00
      0.00000000000000E+00  -4.11577902874798E-17
      3.95535109276391E-02
      1.80000000000000E+00   1.80000000000000E+00   0.00000000000000E+00   0.00000000000000E+00   5.58212902800710E-11
     -5.98642134516992E-33   5.58212902800710E-11   3.12037991229184E-15   0.00000000000000E+00   0.00000000000000E+00
      0.00000000000000E+00   0.00000000000000E+00   7.70155641925470E-17  -7.72188520765566E-17  -2.03287884009547E-19
     -4.74307693124157E-15   0.00000000000000E+00   0.00000000000000E+00   0.00000000000000E+00   0.00000000000000E+00
     -5.58212900767832E-11   3.01010968019218E-26  -5.58212900767831E-11   1.66184720654936E-15   7.11963196697504E-02
      7.11963196697504E-02   0.00000000000000E+00   0.00000000000000E+00   0.00000000000000E+00   0.00000000000000E+00
      0.00000000000000E+00  -3.91501875996305E-17
      4.44036384357071E-02
      1.80000000000000E+00   1.80000000000000E+00   0.00000000000000E+00   0.00000000000000E+00   6.60679745764511E-11
     -7.67929535567267E-33   6.60679745764511E-11   3.11962383867819E-15   0.00000000000000E+00   0.00000000000000E+00
      0.00000000000000E+00   0.00000000000000E+00   7.85631955331166E-17  -7.72188517446758E-17   1.34434378844087E-18
     -4.74352124009174E-15   0.00000000000000E+00   0.00000000000000E+00   0.00000000000000E+00   0.00000000000000E+00
     -6.60679759207949E-11  -5.22065295845494E-26  -6.60679759207949E-11   1.66084338215306E-15   7.99265491842728E-02
      7.99265491842728E-02   0.00000000000000E+00   0.00000000000000E+00   0.00000000000000E+00   0.00000000000000E+00
      0.00000000000000E+00  -3.69459807395132E-17
      4.97258450212271E-02
      1.80000000000000E+00   1.80000000000000E+00   0.00000000000000E+00   0.00000000000000E+00   7.94802924629000E-11
     -2.03542942720711E-32   7.94802924629000E-11   3.11879410185845E-15   0.00000000000000E+00   0.00000000000000E+00
      0.00000000000000E+00   0.00000000000000E+00   7.66637325386829E-17  -7.72188515041242E-17  -5.55118965441315E-19
     -4.74400752602909E-15   0.00000000000000E+00   0.00000000000000E+00   0.00000000000000E+00   0.00000000000000E+00
     -7.94802919077811E-11  -1.92549572161699E-26  -7.94802919077811E-11   1.65973919145958E-15   8.95065210382087E-02
      8.95065210382087E-02   0.00000000000000E+00   0.00000000000000E+00   0.00000000000000E+00   0.00000000000000E+00
      0.00000000000000E+00  -3.45257672889391E-17
      5.55660797144043E-02
      1.80000000000000E+00   1.80000000000000E+00   0.00000000000000E+00   0.00000000000000E+00   9.73377432871808E-11
     -4.74754092749467E-32   9.73377432871808E-11   3.11788352059167E-15   0.00000000000000E+00   0.00000000000000E+00
      0.00000000000000E+00   0.00000000000000E+00   7.64232483034929E-17  -7.72188512507072E-17  -7.95602947214221E-19
     -4.74453962877678E-15   0.00000000000000E+00   0.00000000000000E+00   0.00000000000000E+00   0.00000000000000E+00
     -9.73377424915778E-11   2.72066351692719E-26  -9.73377424915778E-11   1.65852430289506E-15   1.00018943485928E-01
      1.00018943485928E-01   0.00000000000000E+00   0.00000000000000E+00   0.00000000000000E+00   0.00000000000000E+00
      0.00000000000000E+00  -3.18681947099517E-17
      6.19747639177174E-02
      1.80000000000000E+00   1.80000000000000E+00   0.00000000000000E+00   0.00000000000000E+00   1.21561066691060E-10
     -1.16286047141658E-31   1.21561066691060E-10   3.11688421341210E-15   0.00000000000000E+00   0.00000000000000E+00
      0.00000000000000E+00   0.00000000000000E+00   8.00672177983658E-17  -7.72188509036471E-17   2.84836689471876E-18
     -4.74512171732306E-15   0.00000000000000E+00   0.00000000000000E+00   0.00000000000000E+00   0.00000000000000E+00
     -1.21561069539427E-10   8.81078509749872E-27  -1.21561069539427E-10   1.65718725940767E-15   1.11554575051891E-01
      1.11554575051891E-01   0.00000000000000E+00   0.00000000000000E+00   0.00000000000000E+00   0.00000000000000E+00
      0.00000000000000E+00  -2.89497554967009E-17
      6.90072267168197E-02
      1.80000000000000E+00   1.80000000000000E+00   0.00000000000000E+00   0.00000000000000E+00   1.55097260591989E-10
     -2.84388064938320E-31   1.55097260591989E-10   3.11578753055911E-15   0.00000000000000E+00   0.00000000000000E+00
      0.00000000000000E+00   0.00000000000000E+00   7.73135826565319E-17  -7.72188505143941E-17   9.47321421377516E-20
     -4.74575831577412E-15   0.00000000000000E+00   0.00000000000000E+00   0.00000000000000E+00   0.00000000000000E+00
     -1.55097260686721E-10  -2.02703057906253E-26  -1.55097260686721E-10   1.65571534367724E-15   1.24213008090275E-01
      1.24213008090275E-01   0.00000000000000E+00   0.00000000000000E+00   0.00000000000000E+00   0.00000000000000E+00
      0.00000000000000E+00  -2.57445584622299E-17
      7.67241825617013E-02
      1.80000000000000E+00   1.80000000000000E+00   0.00000000000000E+00   0.00000000000000E+00   2.02575546122206E-10
     -6.68251728733385E-31   2.02575546122206E-10   3.11458397940797E-15   0.00000000000000E+00   0.00000000000000E+00
      0.00000000000000E+00   0.00000000000000E+00   7.84385202023285E-17  -7.72188501233200E-17   1.21967007900849E-18
     -4.74645433209130E-15   0.00000000000000E+00   0.00000000000000E+00   0.00000000000000E+00   0.00000000000000E+00
     -2.02575547341876E-10  -1.66948289793747E-26  -2.02575547341876E-10   1.65409442540356E-15   1.38103528611062E-01
      1.38103528611062E-01   0.00000000000000E+00   0.00000000000000E+00   0.00000000000000E+00   0.00000000000000E+00
      0.00000000000000E+00  -2.22240727202324E-17
      8.51922554421513E-02
      1.80000000000000E+00   1.80000000000000E+00   0.00000000000000E+00   0.00000000000000E+00   2.71454378382610E-10
     -1.47443984856156E-30   2.71454378382610E-10   3.11326314282894E-15   0.00000000000000E+00   0.00000000000000E+00
      0.00000000000000E+00   0.00000000000000E+00   8.11364373583428E-17  -7.72188496991039E-17   3.91758765923888E-18
     -4.74721509110365E-15   0.00000000000000E+00   0.00000000000000E+00   0.00000000000000E+00   0.00000000000000E+00
     -2.71454382300198E-10  -8.54346474633716E-27  -2.71454382300198E-10   1.65230878850501E-15   1.53346059795872E-01
      1.53346059795872E-01   0.00000000000000E+00   0.00000000000000E+00   0.00000000000000E+00   0.00000000000000E+00
      0.00000000000000E+00  -1.83568402303031E-17
      9.44845540829652E-02
      1.80000000000000E+00   1.80000000000000E+00   0.00000000000000E+00   0.00000000000000E+00   3.74083682534997E-10
     -2.95835911622509E-30   3.74083682534997E-10   3.11181358987112E-15   0.00000000000000E+00   0.00000000000000E+00
      0.00000000000000E+00   0.00000000000000E+00   6.58586017008682E-17  -7.72188490881457E-17  -1.13602473872774E-17
     -4.74804637427525E-15   0.00000000000000E+00   0.00000000000000E+00   0.00000000000000E+00   0.00000000000000E+00
     -3.74083671174749E-10  -1.45891327839905E-25  -3.74083671174749E-10   1.65034093628167E-15   1.70072197349337E-01
      1.70072197349337E-01   0.00000000000000E+00   0.00000000000000E+00   0.00000000000000E+00   0.00000000000000E+00
      0.00000000000000E+00  -1.41081518775495E-17
      1.04681303124818E-01
      1.80000000000000E+00   1.80000000000000E+00   0.00000000000000E+00   0.00000000000000E+00   5.31524696498315E-10
     -1.53722574779191E-33   5.31524696498315E-10   3.11022277813706E-15   0.00000000000000E+00   0.00000000000000E+00
      0.00000000000000E+00   0.00000000000000E+00   7.80034935596164E-17  -7.72188487071609E-17   7.84644852455526E-19
     -4.74895447063775E-15   0.00000000000000E+00   0.00000000000000E+00   0.00000000000000E+00   0.00000000000000E+00
     -5.31524697282960E-10  -8.19623571193246E-27  -5.31524697282960E-10   1.64817137336756E-15   1.88426345624673E-01
      1.88426345624673E-01   0.00000000000000E+00   0.00000000000000E+00   0.00000000000000E+00   0.00000000000000E+00
      0.00000000000000E+00  -9.43968086686103E-18
      1.15843344409300E-01
      1.80000000000000E+00   1.80000000000000E+00   0.00000000000000E+00   0.00000000000000E+00   7.80125859361856E-10
     -2.13240852039247E-33   7.80125859361856E-10   3.10848119000171E-15   0.00000000000000E+00   0.00000000000000E+00
      0.00000000000000E+00   0.00000000000000E+00   8.36385527411331E-17  -7.72188481469064E-17   6.41970459422671E-18
     -4.74994384235546E-15   0.00000000000000E+00   0.00000000000000E+00   0.00000000000000E+00   0.00000000000000E+00
     -7.80125865781561E-10  -1.92277438754103E-27  -7.80125865781561E-10   1.64578419603761E-15   2.08518019936740E-01
      2.08518019936740E-01   0.00000000000000E+00   0.00000000000000E+00   0.00000000000000E+00   0.00000000000000E+00
      0.00000000000000E+00  -4.32154368387280E-18
      1.28062058935380E-01
      1.80000000000000E+00   1.80000000000000E+00   0.00000000000000E+00   0.00000000000000E+00   1.18608858266168E-09
      1.44134349550880E-33   1.18608858266168E-09   3.10657454663037E-15   0.00000000000000E+00   0.00000000000000E+00
      0.00000000000000E+00   0.00000000000000E+00   7.59547225957419E-17  -7.72188475287954E-17  -1.26412493305346E-18
     -4.75102161260189E-15   0.00000000000000E+00   0.00000000000000E+00   0.00000000000000E+00   0.00000000000000E+00
     -1.18608858139756E-09  -1.44800260183040E-27  -1.18608858139756E-09   1.64315640004407E-15   2.30511706083683E-01
      2.30511706083683E-01   0.00000000000000E+00   0.00000000000000E+00   0.00000000000000E+00   0.00000000000000E+00
      0.00000000000000E+00   1.29066592745293E-18
      1.41437478436594E-01
      1.80000000000000E+00   1.80000000000000E+00   0.00000000000000E+00   0.00000000000000E+00   1.87363263800085E-09
     -1.07979735147848E-33   1.87363263800085E-09   3.10448722559299E-15   0.00000000000000E+00   0.00000000000000E+00
      0.00000000000000E+00   0.00000000000000E+00   7.77576800412557E-17  -7.72188468443702E-17   5.38833196885479E-19
     -4.75219568803169E-15   0.00000000000000E+00   0.00000000000000E+00   0.00000000000000E+00   0.00000000000000E+00
     -1.87363263853969E-09  -1.07633191839766E-26  -1.87363263853969E-09   1.64026242788068E-15   2.54587461185870E-01
      2.54587461185870E-01   0.00000000000000E+00   0.00000000000000E+00   0.00000000000000E+00   0.00000000000000E+00
      0.00000000000000E+00   7.44603455801518E-18
      1.56079104317258E-01
      1.80000000000000E+00   1.80000000000000E+00   0.00000000000000E+00   0.00000000000000E+00   3.08490539753622E-09
     -1.00330704987964E-33   3.08490539753622E-09   3.10220213773367E-15   0.00000000000000E+00   0.00000000000000E+00
      0.00000000000000E+00   0.00000000000000E+00   7.81284767159819E-17  -7.72188461086314E-17   9.09630607350498E-19
     -4.75347500849561E-15   0.00000000000000E+00   0.00000000000000E+00   0.00000000000000E+00   0.00000000000000E+00
     -3.08490539844585E-09  -1.02522241695442E-26  -3.08490539844585E-09   1.63707395585519E-15   2.80942387771064E-01
      2.80942387771064E-01   0.00000000000000E+00   0.00000000000000E+00   0.00000000000000E+00   0.00000000000000E+00
      0.00000000000000E+00   1.41989149067538E-17
      1.72106804114624E-01
      1.80000000000000E+00   1.80000000000000E+00   0.00000000000000E+00   0.00000000000000E+00   5.31153813186108E-09
      1.46220895202312E-34   5.31153813186108E-09   3.09970059319702E-15   0.00000000000000E+00   0.00000000000000E+00
      0.00000000000000E+00   0.00000000000000E+00   8.07211287442135E-17  -7.72188453190428E-17   3.50228342517067E-18
     -4.75486997175019E-15   0.00000000000000E+00   0.00000000000000E+00   0.00000000000000E+00   0.00000000000000E+00
     -5.31153813536337E-09   2.05190379818013E-27  -5.31153813536337E-09   1.63355975484548E-15   3.09792247406323E-01
      3.09792247406323E-01   0.00000000000000E+00   0.00000000000000E+00   0.00000000000000E+00   0.00000000000000E+00
      0.00000000000000E+00   2.16096237076885E-17
      1.89651792826141E-01
      1.80000000000000E+00   1.80000000000000E+00   0.00000000000000E+00   0.00000000000000E+00   9.59567717248066E-09
      2.54109150196544E-34   9.59567717248066E-09   3.09696215427099E-15   0.00000000000000E+00   0.00000000000000E+00
      0.00000000000000E+00   0.00000000000000E+00   8.27661870502868E-17  -7.72188444386031E-17   5.54734261168375E-18
     -4.75639317459258E-15   0.00000000000000E+00   0.00000000000000E+00   0.00000000000000E+00   0.00000000000000E+00
     -9.59567717802800E-09  -7.12832314135916E-27  -9.59567717802800E-09   1.62968572149921E-15   3.41373227087053E-01
      3.41373227087053E-01   0.00000000000000E+00   0.00000000000000E+00   0.00000000000000E+00   0.00000000000000E+00
      0.00000000000000E+00   2.97452988223572E-17
      2.08857707135681E-01
      1.80000000000000E+00   1.80000000000000E+00   0.00000000000000E+00   0.00000000000000E+00   1.82486042403745E-08
     -1.64544247179409E-33   1.82486042403745E-08   3.09396446902465E-15   0.00000000000000E+00   0.00000000000000E+00
      0.00000000000000E+00   0.00000000000000E+00   7.87386883392419E-17  -7.72188434959343E-17   1.51984484330759E-18
     -4.75806073216479E-15   0.00000000000000E+00   0.00000000000000E+00   0.00000000000000E+00   0.00000000000000E+00
     -1.82486042418944E-08  -7.70611720469308E-27  -1.82486042418944E-08   1.62541525814000E-15   3.75943872844226E-01
      3.75943872844226E-01   0.00000000000000E+00   0.00000000000000E+00   0.00000000000000E+00   0.00000000000000E+00
      0.00000000000000E+00   3.86810050001456E-17
      2.29881781333191E-01
      1.80000000000000E+00   1.80000000000000E+00   0.00000000000000E+00   0.00000000000000E+00   3.66400329764407E-08
      4.79457308472731E-34   3.66400329764407E-08   3.09068306865426E-15   0.00000000000000E+00   0.00000000000000E+00
      0.00000000000000E+00   0.00000000000000E+00   7.64516323477518E-17  -7.72188425081523E-17  -7.67210160400561E-19
     -4.75989466603019E-15   0.00000000000000E+00   0.00000000000000E+00   0.00000000000000E+00   0.00000000000000E+00
     -3.66400329756735E-08   1.25086065721755E-26  -3.66400329756735E-08   1.62071031979275E-15   4.13787206399744E-01
      4.13787206399744E-01   0.00000000000000E+00   0.00000000000000E+00   0.00000000000000E+00   0.00000000000000E+00
      0.00000000000000E+00   4.85012775831748E-17