DF-ISE text

Info {
  version   = 1.0
  type      = xyplot
  datasets  = [
    "time"
    "Drain_contact OuterVoltage" "Drain_contact InnerVoltage" "Drain_contact QuasiFermiPotential" "Drain_contact DisplacementCurrent" "Drain_contact eCurrent"
    "Drain_contact hCurrent" "Drain_contact TotalCurrent" "Drain_contact Charge" "Body_contact OuterVoltage" "Body_contact InnerVoltage"
    "Body_contact QuasiFermiPotential" "Body_contact DisplacementCurrent" "Body_contact eCurrent" "Body_contact hCurrent" "Body_contact TotalCurrent"
    "Body_contact Charge" "Source_contact OuterVoltage" "Source_contact InnerVoltage" "Source_contact QuasiFermiPotential" "Source_contact DisplacementCurrent"
    "Source_contact eCurrent" "Source_contact hCurrent" "Source_contact TotalCurrent" "Source_contact Charge" "Gate_contact OuterVoltage"
    "Gate_contact InnerVoltage" "Gate_contact QuasiFermiPotential" "Gate_contact DisplacementCurrent" "Gate_contact eCurrent" "Gate_contact hCurrent"
    "Gate_contact TotalCurrent" "Gate_contact Charge" ]
  functions = [
    Time
    OuterVoltage InnerVoltage QuasiFermiPotential DisplacementCurrent eCurrent
    hCurrent TotalCurrent Charge OuterVoltage InnerVoltage
    QuasiFermiPotential DisplacementCurrent eCurrent hCurrent TotalCurrent
    Charge OuterVoltage InnerVoltage QuasiFermiPotential DisplacementCurrent
    eCurrent hCurrent TotalCurrent Charge OuterVoltage
    InnerVoltage QuasiFermiPotential DisplacementCurrent eCurrent hCurrent
    TotalCurrent Charge ]
}

Data {
      0.00000000000000E+00
      1.80000000000000E+00   1.80000000000000E+00   0.00000000000000E+00   0.00000000000000E+00   1.76021921875159E-18
     -1.75976967305065E-18   4.49545700935499E-22   4.17228495051057E-15   0.00000000000000E+00   0.00000000000000E+00
      0.00000000000000E+00   0.00000000000000E+00   2.99271835523218E-05  -1.62428138576824E-17   2.99271835523056E-05
     -6.07890780718068E-15   0.00000000000000E+00   0.00000000000000E+00   0.00000000000000E+00   0.00000000000000E+00
     -2.99271835523056E-05   2.48406472505535E-23  -2.99271835523056E-05   2.07178347800384E-15   0.00000000000000E+00
      0.00000000000000E+00   0.00000000000000E+00   0.00000000000000E+00   0.00000000000000E+00   0.00000000000000E+00
      0.00000000000000E+00  -1.65160621333736E-16
      0.00000000000000E+00
      1.80000000000000E+00   1.80000000000000E+00   0.00000000000000E+00   0.00000000000000E+00   2.35487565800659E-09
      5.14824702386057E-31   2.35487565800659E-09   4.17235836566803E-15   0.00000000000000E+00   0.00000000000000E+00
      0.00000000000000E+00   0.00000000000000E+00   7.83980225655772E-17  -8.16833650326652E-17  -3.28534246708793E-18
     -6.08648322732631E-15   0.00000000000000E+00   0.00000000000000E+00   0.00000000000000E+00   0.00000000000000E+00
     -2.35487565472125E-09   1.19443102637970E-24  -2.35487565472125E-09   2.07892748093642E-15   0.00000000000000E+00
      0.00000000000000E+00   0.00000000000000E+00   0.00000000000000E+00   0.00000000000000E+00   0.00000000000000E+00
      0.00000000000000E+00  -1.64802619278125E-16
      1.00000000000000E-03
      1.80000000000000E+00   1.80000000000000E+00   0.00000000000000E+00   0.00000000000000E+00   2.42737394210570E-09
      5.18204003819056E-32   2.42737394210570E-09   4.17209782747382E-15   0.00000000000000E+00   0.00000000000000E+00
      0.00000000000000E+00   0.00000000000000E+00   7.81893947120720E-17  -8.16833641605748E-17  -3.49396944850278E-18
     -6.08654255884732E-15   0.00000000000000E+00   0.00000000000000E+00   0.00000000000000E+00   0.00000000000000E+00
     -2.42737393861173E-09   3.57563490691816E-25  -2.42737393861173E-09   2.07866314996972E-15   1.80000000000000E-03
      1.80000000000000E-03   0.00000000000000E+00   0.00000000000000E+00   0.00000000000000E+00   0.00000000000000E+00
      0.00000000000000E+00  -1.64218418596226E-16
      2.09466666666667E-03
      1.80000000000000E+00   1.80000000000000E+00   0.00000000000000E+00   0.00000000000000E+00   2.50929967151714E-09
      8.49691451623708E-31   2.50929967151714E-09   4.17181261247433E-15   0.00000000000000E+00   0.00000000000000E+00
      0.00000000000000E+00   0.00000000000000E+00   7.68738212529716E-17  -8.16833598053641E-17  -4.80953855239256E-18
     -6.08660759554958E-15   0.00000000000000E+00   0.00000000000000E+00   0.00000000000000E+00   0.00000000000000E+00
     -2.50929966670760E-09  -3.95912428621845E-24  -2.50929966670760E-09   2.07837386125935E-15   3.77040000000000E-03
      3.77040000000000E-03   0.00000000000000E+00   0.00000000000000E+00   0.00000000000000E+00   0.00000000000000E+00
      0.00000000000000E+00  -1.63578878184101E-16
      3.29588088888889E-03
      1.80000000000000E+00   1.80000000000000E+00   0.00000000000000E+00   0.00000000000000E+00   2.60238812315132E-09
     -5.10368390983441E-31   2.60238812315132E-09   4.17149962150471E-15   0.00000000000000E+00   0.00000000000000E+00
      0.00000000000000E+00   0.00000000000000E+00   8.52544394915687E-17  -8.16833627032510E-17   3.57107678831767E-18
     -6.08667906961546E-15   0.00000000000000E+00   0.00000000000000E+00   0.00000000000000E+00   0.00000000000000E+00
     -2.60238812672239E-09  -1.01900291889699E-24  -2.60238812672239E-09   2.07805649455354E-15   5.93258560000000E-03
      5.93258560000000E-03   0.00000000000000E+00   0.00000000000000E+00   0.00000000000000E+00   0.00000000000000E+00
      0.00000000000000E+00  -1.62877046442787E-16
      4.61401329540741E-03
      1.80000000000000E+00   1.80000000000000E+00   0.00000000000000E+00   0.00000000000000E+00   2.70851952972993E-09
      7.05578701212453E-31   2.70851952972993E-09   4.17115614799150E-15   0.00000000000000E+00   0.00000000000000E+00
      0.00000000000000E+00   0.00000000000000E+00   7.27850463148129E-17  -8.16833633045429E-17  -8.89831698973003E-18
     -6.08675763045236E-15   0.00000000000000E+00   0.00000000000000E+00   0.00000000000000E+00   0.00000000000000E+00
     -2.70851952083161E-09  -3.71416982620183E-25  -2.70851952083161E-09   2.07770833388146E-15   8.30522393173334E-03
      8.30522393173334E-03   0.00000000000000E+00   0.00000000000000E+00   0.00000000000000E+00   0.00000000000000E+00
      0.00000000000000E+00  -1.62106851420600E-16
      6.06044392282706E-03
      1.80000000000000E+00   1.80000000000000E+00   0.00000000000000E+00   0.00000000000000E+00   2.82997239473393E-09
     -9.73210324924336E-31   2.82997239473393E-09   4.17077922130830E-15   0.00000000000000E+00   0.00000000000000E+00
      0.00000000000000E+00   0.00000000000000E+00   8.59264096005856E-17  -8.16833620276360E-17   4.24304757294954E-18
     -6.08684399566354E-15   0.00000000000000E+00   0.00000000000000E+00   0.00000000000000E+00   0.00000000000000E+00
     -2.82997239897698E-09  -1.59757996483806E-24  -2.82997239897698E-09   2.07732640262457E-15   1.09087990610887E-02
      1.09087990610887E-02   0.00000000000000E+00   0.00000000000000E+00   0.00000000000000E+00   0.00000000000000E+00
      0.00000000000000E+00  -1.61261628269311E-16
      7.64766046464890E-03
      1.80000000000000E+00   1.80000000000000E+00   0.00000000000000E+00   0.00000000000000E+00   2.96952704073843E-09
      2.26671722608817E-31   2.96952704073843E-09   4.17036558095345E-15   0.00000000000000E+00   0.00000000000000E+00
      0.00000000000000E+00   0.00000000000000E+00   8.50668361075600E-17  -8.16833656864178E-17   3.38347042114222E-18
     -6.08693895881735E-15   0.00000000000000E+00   0.00000000000000E+00   0.00000000000000E+00   0.00000000000000E+00
     -2.96952704412190E-09   2.11680999751465E-24  -2.96952704412190E-09   2.07690743898680E-15   1.37657888363680E-02
      1.37657888363680E-02   0.00000000000000E+00   0.00000000000000E+00   0.00000000000000E+00   0.00000000000000E+00
      0.00000000000000E+00  -1.60334061122897E-16
      9.38936608320806E-03
      1.80000000000000E+00   1.80000000000000E+00   0.00000000000000E+00   0.00000000000000E+00   3.13060112244407E-09
      1.24259437684069E-30   3.13060112244407E-09   4.16991164819074E-15   0.00000000000000E+00   0.00000000000000E+00
      0.00000000000000E+00   0.00000000000000E+00   8.07914740461986E-17  -8.16833651068232E-17  -8.91891060624618E-19
     -6.08704339824258E-15   0.00000000000000E+00   0.00000000000000E+00   0.00000000000000E+00   0.00000000000000E+00
     -3.13060112155218E-09   1.59814930278865E-24  -3.13060112155217E-09   2.07644786927753E-15   1.69008589497745E-02
      1.69008589497745E-02   0.00000000000000E+00   0.00000000000000E+00   0.00000000000000E+00   0.00000000000000E+00
      0.00000000000000E+00  -1.59316119225701E-16
      1.13005977153070E-02
      1.80000000000000E+00   1.80000000000000E+00   0.00000000000000E+00   0.00000000000000E+00   3.31742854405763E-09
      2.21352617058315E-30   3.31742854405763E-09   4.16941349490217E-15   0.00000000000000E+00   0.00000000000000E+00
      0.00000000000000E+00   0.00000000000000E+00   9.07912732806420E-17  -8.16833609157124E-17   9.10791236492960E-18
     -6.08715828701943E-15   0.00000000000000E+00   0.00000000000000E+00   0.00000000000000E+00   0.00000000000000E+00
     -3.31742855316554E-09  -2.52620279318928E-24  -3.31742855316554E-09   2.07594377884528E-15   2.03410758875526E-02
      2.03410758875526E-02   0.00000000000000E+00   0.00000000000000E+00   0.00000000000000E+00   0.00000000000000E+00
      0.00000000000000E+00  -1.58198986728028E-16
      1.33978558929302E-02
      1.80000000000000E+00   1.80000000000000E+00   0.00000000000000E+00   0.00000000000000E+00   3.53529788503209E-09
     -4.82499913823563E-31   3.53529788503209E-09   4.16886680937578E-15   0.00000000000000E+00   0.00000000000000E+00
      0.00000000000000E+00   0.00000000000000E+00   8.47544048307143E-17  -8.16833653544677E-17   3.07103947624661E-18
     -6.08728470436964E-15   0.00000000000000E+00   0.00000000000000E+00   0.00000000000000E+00   0.00000000000000E+00
     -3.53529788810314E-09   1.98568329831315E-24  -3.53529788810313E-09   2.07539088049817E-15   2.41161406072744E-02
      2.41161406072744E-02   0.00000000000000E+00   0.00000000000000E+00   0.00000000000000E+00   0.00000000000000E+00
      0.00000000000000E+00  -1.56972985504322E-16
      1.56992471998421E-02
      1.80000000000000E+00   1.80000000000000E+00   0.00000000000000E+00   0.00000000000000E+00   3.79087327007674E-09
      5.11575965848816E-31   3.79087327007674E-09   4.16826685872758E-15   0.00000000000000E+00   0.00000000000000E+00
      0.00000000000000E+00   0.00000000000000E+00   6.62971958529315E-17  -8.16833641633813E-17  -1.53861683104498E-17
     -6.08742384870416E-15   0.00000000000000E+00   0.00000000000000E+00   0.00000000000000E+00   0.00000000000000E+00
     -3.79087325469057E-09   8.74683431602818E-25  -3.79087325469057E-09   2.07478448025123E-15   2.82586449597157E-02
      2.82586449597157E-02   0.00000000000000E+00   0.00000000000000E+00   0.00000000000000E+00   0.00000000000000E+00
      0.00000000000000E+00  -1.55627490274641E-16
      1.82246405939600E-02
      1.80000000000000E+00   1.80000000000000E+00   0.00000000000000E+00   0.00000000000000E+00   4.09263068783282E-09
     -1.04302355764644E-30   4.09263068783282E-09   4.16760844762077E-15   0.00000000000000E+00   0.00000000000000E+00
      0.00000000000000E+00   0.00000000000000E+00   7.68514114772509E-17  -8.16833663334994E-17  -4.83195485624849E-18
     -6.08757705263153E-15   0.00000000000000E+00   0.00000000000000E+00   0.00000000000000E+00   0.00000000000000E+00
     -4.09263068300086E-09   3.13249178473900E-24  -4.09263068300086E-09   2.07411944024798E-15   3.28043530691281E-02
      3.28043530691281E-02   0.00000000000000E+00   0.00000000000000E+00   0.00000000000000E+00   0.00000000000000E+00
      0.00000000000000E+00  -1.54150835237220E-16
      2.09958389451055E-02
      1.80000000000000E+00   1.80000000000000E+00   0.00000000000000E+00   0.00000000000000E+00   4.45145784903141E-09
     -8.72173872039853E-31   4.45145784903141E-09   4.16688587291875E-15   0.00000000000000E+00   0.00000000000000E+00
      0.00000000000000E+00   0.00000000000000E+00   6.56078126606435E-17  -8.16833656458636E-17  -1.60755529852201E-17
     -6.08774580031865E-15   0.00000000000000E+00   0.00000000000000E+00   0.00000000000000E+00   0.00000000000000E+00
     -4.45145783295586E-09   2.54084128639396E-24  -4.45145783295585E-09   2.07339013871939E-15   3.77925101011899E-02
      3.77925101011899E-02   0.00000000000000E+00   0.00000000000000E+00   0.00000000000000E+00   0.00000000000000E+00
      0.00000000000000E+00  -1.52530211319496E-16
      2.40367672690957E-02
      1.80000000000000E+00   1.80000000000000E+00   0.00000000000000E+00   0.00000000000000E+00   4.88148850763027E-09
     -7.90137626035502E-31   4.88148850763027E-09   4.16609287386793E-15   0.00000000000000E+00   0.00000000000000E+00
      0.00000000000000E+00   0.00000000000000E+00   7.20051074028346E-17  -8.16833665947443E-17  -9.67825919190974E-18
     -6.08793174768671E-15   0.00000000000000E+00   0.00000000000000E+00   0.00000000000000E+00   0.00000000000000E+00
     -4.88148849795201E-09   3.59475631086547E-24  -4.88148849795201E-09   2.07259042687640E-15   4.32661810843724E-02
      4.32661810843724E-02   0.00000000000000E+00   0.00000000000000E+00   0.00000000000000E+00   0.00000000000000E+00
      0.00000000000000E+00  -1.50751553057629E-16
      2.73736792832877E-02
      1.80000000000000E+00   1.80000000000000E+00   0.00000000000000E+00   0.00000000000000E+00   5.40127726609657E-09
      9.77343189518040E-31   5.40127726609657E-09   4.16522257737125E-15   0.00000000000000E+00   0.00000000000000E+00
      0.00000000000000E+00   0.00000000000000E+00   8.55965643327681E-17  -8.16833675327885E-17   3.91319679997959E-18
     -6.08813674606332E-15   0.00000000000000E+00   0.00000000000000E+00   0.00000000000000E+00   0.00000000000000E+00
     -5.40127727000977E-09   4.64769325263644E-24  -5.40127727000977E-09   2.07171358267701E-15   4.92726227099179E-02
      4.92726227099179E-02   0.00000000000000E+00   0.00000000000000E+00   0.00000000000000E+00   0.00000000000000E+00
      0.00000000000000E+00  -1.48799413984942E-16
      3.10353840668611E-02
      1.80000000000000E+00   1.80000000000000E+00   0.00000000000000E+00   0.00000000000000E+00   6.03547551102589E-09
     -1.04443759523704E-30   6.03547551102589E-09   4.16426743787696E-15   0.00000000000000E+00   0.00000000000000E+00
      0.00000000000000E+00   0.00000000000000E+00   9.57503408536022E-17  -8.16833593844735E-17   1.40669814691287E-17
     -6.08836287009492E-15   0.00000000000000E+00   0.00000000000000E+00   0.00000000000000E+00   0.00000000000000E+00
     -6.03547552509287E-09  -3.37499348040486E-24  -6.03547552509288E-09   2.07075226147762E-15   5.58636913203499E-02
      5.58636913203499E-02   0.00000000000000E+00   0.00000000000000E+00   0.00000000000000E+00   0.00000000000000E+00
      0.00000000000000E+00  -1.46656829259660E-16
      3.50534947827022E-02
      1.80000000000000E+00   1.80000000000000E+00   0.00000000000000E+00   0.00000000000000E+00   6.81725554212933E-09
     -1.38383477322056E-30   6.81725554212933E-09   4.16321917135310E-15   0.00000000000000E+00   0.00000000000000E+00
      0.00000000000000E+00   0.00000000000000E+00   8.95753617755909E-17  -8.16833595760178E-17   7.89200219957317E-18
     -6.08861245093668E-15   0.00000000000000E+00   0.00000000000000E+00   0.00000000000000E+00   0.00000000000000E+00
     -6.81725555002133E-09  -3.04615978167532E-24  -6.81725555002133E-09   2.06969844368736E-15   6.30962906088640E-02
      6.30962906088640E-02   0.00000000000000E+00   0.00000000000000E+00   0.00000000000000E+00   0.00000000000000E+00
      0.00000000000000E+00  -1.44305164103782E-16
      3.94627016082186E-02
      1.80000000000000E+00   1.80000000000000E+00   0.00000000000000E+00   0.00000000000000E+00   7.79186871361468E-09
     -8.33957626513132E-31   7.79186871361468E-09   4.16206868279182E-15   0.00000000000000E+00   0.00000000000000E+00
      0.00000000000000E+00   0.00000000000000E+00   2.35124718516435E-15  -8.16833654973175E-17   2.26956381966703E-15
     -6.08888811609955E-15   0.00000000000000E+00   0.00000000000000E+00   0.00000000000000E+00   0.00000000000000E+00
     -7.79187098317850E-09   3.02508112988503E-24  -7.79187098317850E-09   2.06854337969605E-15   7.10328628947935E-02
      7.10328628947935E-02   0.00000000000000E+00   0.00000000000000E+00   0.00000000000000E+00   0.00000000000000E+00
      0.00000000000000E+00  -1.41723946388316E-16
      4.43010712314185E-02
      1.80000000000000E+00   1.80000000000000E+00   0.00000000000000E+00   0.00000000000000E+00   9.02195000183356E-09
     -1.84225117975147E-30   9.02195000183356E-09   4.16080598664028E-15   0.00000000000000E+00   0.00000000000000E+00
      0.00000000000000E+00   0.00000000000000E+00   1.28101927268048E-16  -8.16833630952651E-17   4.64185641727825E-17
     -6.08919283776847E-15   0.00000000000000E+00   0.00000000000000E+00   0.00000000000000E+00   0.00000000000000E+00
     -9.02195004825213E-09   7.86665538395321E-25  -9.02195004825213E-09   2.06727753256886E-15   7.97419282165534E-02
      7.97419282165534E-02   0.00000000000000E+00   0.00000000000000E+00   0.00000000000000E+00   0.00000000000000E+00
      0.00000000000000E+00  -1.38890681440663E-16
      4.96103754979433E-02
      1.80000000000000E+00   1.80000000000000E+00   0.00000000000000E+00   0.00000000000000E+00   1.05955578201732E-08
      3.22887527494989E-31   1.05955578201732E-08   4.15942011953359E-15   0.00000000000000E+00   0.00000000000000E+00
      0.00000000000000E+00   0.00000000000000E+00   1.99345005704000E-16  -8.16833576278937E-17   1.17661648076106E-16
     -6.08952999207124E-15   0.00000000000000E+00   0.00000000000000E+00   0.00000000000000E+00   0.00000000000000E+00
     -1.05955579378348E-08  -4.50229826510645E-24  -1.05955579378348E-08   2.06589051932933E-15   8.92986758962979E-02
      8.92986758962979E-02   0.00000000000000E+00   0.00000000000000E+00   0.00000000000000E+00   0.00000000000000E+00
      0.00000000000000E+00  -1.35780646791687E-16
      5.54364520464098E-02
      1.80000000000000E+00   1.80000000000000E+00   0.00000000000000E+00   0.00000000000000E+00   1.26385747405040E-08
      3.13027002073048E-30   1.26385747405040E-08   4.15789904470100E-15   0.00000000000000E+00   0.00000000000000E+00
      0.00000000000000E+00   0.00000000000000E+00   3.54085879603893E-16  -8.16833638361832E-17   2.72402515767710E-16
     -6.08990343271046E-15   0.00000000000000E+00   0.00000000000000E+00   0.00000000000000E+00   0.00000000000000E+00
     -1.26385750129065E-08   1.90026835090527E-24  -1.26385750129065E-08   2.06437105210705E-15   9.97856136835376E-02
      9.97856136835376E-02   0.00000000000000E+00   0.00000000000000E+00   0.00000000000000E+00   0.00000000000000E+00
      0.00000000000000E+00  -1.32366664097583E-16
      6.18296000455937E-02
      1.80000000000000E+00   1.80000000000000E+00   0.00000000000000E+00   0.00000000000000E+00   1.53341928247811E-08
      3.48894451064469E-31   1.53341928247811E-08   4.15622954744359E-15   0.00000000000000E+00   0.00000000000000E+00
      0.00000000000000E+00   0.00000000000000E+00   7.61344904359205E-16  -8.16833628917075E-17   6.79661541467497E-16
     -6.09031758373787E-15   0.00000000000000E+00   0.00000000000000E+00   0.00000000000000E+00   0.00000000000000E+00
     -1.53341935044426E-08   1.16701954986606E-24  -1.53341935044426E-08   2.06270688111222E-15   1.11293280082069E-01
      1.11293280082069E-01   0.00000000000000E+00   0.00000000000000E+00   0.00000000000000E+00   0.00000000000000E+00
      0.00000000000000E+00  -1.28618844817935E-16
      6.88450144500315E-02
      1.80000000000000E+00   1.80000000000000E+00   0.00000000000000E+00   0.00000000000000E+00   1.89541381660695E-08
      6.34351983464438E-31   1.89541381660695E-08   4.15439712119346E-15   0.00000000000000E+00   0.00000000000000E+00
      0.00000000000000E+00   0.00000000000000E+00   1.81963166912322E-15  -8.16833575806549E-17   1.73794831154257E-15
     -6.09077755827207E-15   0.00000000000000E+00   0.00000000000000E+00   0.00000000000000E+00   0.00000000000000E+00
     -1.89541399040178E-08  -3.91480683237320E-24  -1.89541399040178E-08   2.06088474236337E-15   1.23921026010057E-01
      1.23921026010057E-01   0.00000000000000E+00   0.00000000000000E+00   0.00000000000000E+00   0.00000000000000E+00
      0.00000000000000E+00  -1.24504305284758E-16
      7.65432625231679E-02
      1.80000000000000E+00   1.80000000000000E+00   0.00000000000000E+00   0.00000000000000E+00   2.39097548572399E-08
     -1.22387544994430E-30   2.39097548572399E-08   4.15238584398507E-15   0.00000000000000E+00   0.00000000000000E+00
      0.00000000000000E+00   0.00000000000000E+00   4.67723081190027E-15  -8.16833587835294E-17   4.59554745311675E-15
     -6.09128931326405E-15   0.00000000000000E+00   0.00000000000000E+00   0.00000000000000E+00   0.00000000000000E+00
     -2.39097594527873E-08  -2.46399714272441E-24  -2.39097594527873E-08   2.05889031454420E-15   1.37777872541702E-01
      1.37777872541702E-01   0.00000000000000E+00   0.00000000000000E+00   0.00000000000000E+00   0.00000000000000E+00
      0.00000000000000E+00  -1.19986845265221E-16
      8.49908067420896E-02
      1.80000000000000E+00   1.80000000000000E+00   0.00000000000000E+00   0.00000000000000E+00   3.08374209185487E-08
     -1.91887311453779E-30   3.08374209185487E-08   4.15017824560160E-15   0.00000000000000E+00   0.00000000000000E+00
      0.00000000000000E+00   0.00000000000000E+00   1.25955241684861E-14  -8.16833594207198E-17   1.25138408090654E-14
     -6.09185985501732E-15   0.00000000000000E+00   0.00000000000000E+00   0.00000000000000E+00   0.00000000000000E+00
     -3.08374334323895E-08  -1.55974644817138E-24  -3.08374334323895E-08   2.05670819143123E-15   1.52983452135761E-01
      1.52983452135761E-01   0.00000000000000E+00   0.00000000000000E+00   0.00000000000000E+00   0.00000000000000E+00
      0.00000000000000E+00  -1.15026582015510E-16
      9.42605785983196E-02
      1.80000000000000E+00   1.80000000000000E+00   0.00000000000000E+00   0.00000000000000E+00   4.07446936713454E-08
      1.12489938798276E-30   4.07446936713454E-08   4.14775516694382E-15   0.00000000000000E+00   0.00000000000000E+00
      0.00000000000000E+00   0.00000000000000E+00   8.63474593849964E-17  -8.16833592130462E-17   4.66410017195023E-18
     -6.09249751856782E-15   0.00000000000000E+00   0.00000000000000E+00   0.00000000000000E+00   0.00000000000000E+00
     -4.07446936760094E-08  -1.48168306782028E-24  -4.07446936760094E-08   2.05432187950803E-15   1.69669041476975E-01
      1.69669041476975E-01   0.00000000000000E+00   0.00000000000000E+00   0.00000000000000E+00   0.00000000000000E+00
      0.00000000000000E+00  -1.09579527884030E-16
      1.04407888856939E-01
      1.80000000000000E+00   1.80000000000000E+00   0.00000000000000E+00   0.00000000000000E+00   5.52252681465481E-08
      4.46558970045103E-31   5.52252681465481E-08   4.14510207882274E-15   0.00000000000000E+00   0.00000000000000E+00
      0.00000000000000E+00   0.00000000000000E+00   6.66278972687482E-17  -8.16833613916215E-17  -1.50554641228733E-17
     -6.09321059895846E-15   0.00000000000000E+00   0.00000000000000E+00   0.00000000000000E+00   0.00000000000000E+00
     -5.52252681314927E-08   9.99236993805179E-25  -5.52252681314927E-08   2.05172015890663E-15   1.87934199942491E-01
      1.87934199942491E-01   0.00000000000000E+00   0.00000000000000E+00   0.00000000000000E+00   0.00000000000000E+00
      0.00000000000000E+00  -1.03611638770918E-16
      1.15515811153375E-01
      1.80000000000000E+00   1.80000000000000E+00   0.00000000000000E+00   0.00000000000000E+00   7.69413796144785E-08
      8.51951361375653E-31   7.69413796144785E-08   4.14219725771302E-15   0.00000000000000E+00   0.00000000000000E+00
      0.00000000000000E+00   0.00000000000000E+00   7.15839339099857E-17  -8.16833630945162E-17  -1.00994291845305E-17
     -6.09401093094374E-15   0.00000000000000E+00   0.00000000000000E+00   0.00000000000000E+00   0.00000000000000E+00
     -7.69413796043791E-08   3.01699941312783E-24  -7.69413796043791E-08   2.04888564332287E-15   2.07928460076076E-01
      2.07928460076076E-01   0.00000000000000E+00   0.00000000000000E+00   0.00000000000000E+00   0.00000000000000E+00
      0.00000000000000E+00  -9.70719700921412E-17
      1.27675283427207E-01
      1.80000000000000E+00   1.80000000000000E+00   0.00000000000000E+00   0.00000000000000E+00   1.10413152791778E-07
      4.60696220890778E-31   1.10413152791778E-07   4.13901705835400E-15   0.00000000000000E+00   0.00000000000000E+00
      0.00000000000000E+00   0.00000000000000E+00   8.41465693560111E-17  -8.16833656514595E-17   2.46320370455162E-18
     -6.09491328003593E-15   0.00000000000000E+00   0.00000000000000E+00   0.00000000000000E+00   0.00000000000000E+00
     -1.10413152794241E-07   5.89331943041865E-24  -1.10413152794241E-07   2.04580029025687E-15   2.29815510168973E-01
      2.29815510168973E-01   0.00000000000000E+00   0.00000000000000E+00   0.00000000000000E+00   0.00000000000000E+00
      0.00000000000000E+00  -8.99040685749342E-17
      1.40985852409628E-01
      1.80000000000000E+00   1.80000000000000E+00   0.00000000000000E+00   0.00000000000000E+00   1.63515591869495E-07
      2.46337236404002E-30   1.63515591869495E-07   4.13553586001293E-15   0.00000000000000E+00   0.00000000000000E+00
      0.00000000000000E+00   0.00000000000000E+00   1.09324219628563E-16  -8.16833578645506E-17   2.76408617640120E-17
     -6.09593650717089E-15   0.00000000000000E+00   0.00000000000000E+00   0.00000000000000E+00   0.00000000000000E+00
     -1.63515591897135E-07  -1.58477269950898E-24  -1.63515591897135E-07   2.04244571736060E-15   2.53774534337331E-01
      2.53774534337331E-01   0.00000000000000E+00   0.00000000000000E+00   0.00000000000000E+00   0.00000000000000E+00
      0.00000000000000E+00  -8.20450702026496E-17
      1.55556488589052E-01
      1.80000000000000E+00   1.80000000000000E+00   0.00000000000000E+00   0.00000000000000E+00   2.50315421215449E-07
      5.53836708596691E-31   2.50315421215449E-07   4.13172612264481E-15   0.00000000000000E+00   0.00000000000000E+00
      0.00000000000000E+00   0.00000000000000E+00   2.23167743683997E-16  -8.16833629384882E-17   1.41484380745509E-16
     -6.09710538191150E-15   0.00000000000000E+00   0.00000000000000E+00   0.00000000000000E+00   0.00000000000000E+00
     -2.50315421356933E-07   3.75981676920330E-24  -2.50315421356933E-07   2.03880371324892E-15   2.80001679460294E-01
      2.80001679460294E-01   0.00000000000000E+00   0.00000000000000E+00   0.00000000000000E+00   0.00000000000000E+00
      0.00000000000000E+00  -7.34244539822417E-17
      1.71506478326795E-01
      1.80000000000000E+00   1.80000000000000E+00   0.00000000000000E+00   0.00000000000000E+00   3.96506808292595E-07
     -1.77716702891955E-30   3.96506808292595E-07   4.12755866863351E-15   0.00000000000000E+00   0.00000000000000E+00
      0.00000000000000E+00   0.00000000000000E+00   5.52573061521638E-16  -8.16833544572898E-17   4.70889707064348E-16
     -6.09845347838861E-15   0.00000000000000E+00   0.00000000000000E+00   0.00000000000000E+00   0.00000000000000E+00
     -3.96506808763485E-07  -4.54445428585736E-24  -3.96506808763485E-07   2.03485703446008E-15   3.08711660988230E-01
      3.08711660988230E-01   0.00000000000000E+00   0.00000000000000E+00   0.00000000000000E+00   0.00000000000000E+00
      0.00000000000000E+00  -6.39622247050004E-17
      1.88966400426377E-01
      1.80000000000000E+00   1.80000000000000E+00   0.00000000000000E+00   0.00000000000000E+00   6.49806750739190E-07
     -5.62003645357801E-31   6.49806750739190E-07   4.12300340097935E-15   0.00000000000000E+00   0.00000000000000E+00
      0.00000000000000E+00   0.00000000000000E+00   1.95934275387500E-15  -8.16833566182336E-17   1.87765939725677E-15
     -6.10002785645721E-15   0.00000000000000E+00   0.00000000000000E+00   0.00000000000000E+00   0.00000000000000E+00
     -6.49806752616849E-07  -2.40574034735191E-24  -6.49806752616849E-07   2.03059060439539E-15   3.40139520767478E-01
      3.40139520767478E-01   0.00000000000000E+00   0.00000000000000E+00   0.00000000000000E+00   0.00000000000000E+00
      0.00000000000000E+00  -5.35661489175275E-17
      2.08079195151386E-01
      1.80000000000000E+00   1.80000000000000E+00   0.00000000000000E+00   0.00000000000000E+00   1.09932661490723E-06
     -5.54241830605841E-31   1.09932661490723E-06   4.11803080529490E-15   0.00000000000000E+00   0.00000000000000E+00
      0.00000000000000E+00   0.00000000000000E+00   4.57621867766086E-15  -8.16833657931307E-17   4.49453531186773E-15
     -6.10189652105712E-15   0.00000000000000E+00   0.00000000000000E+00   0.00000000000000E+00   0.00000000000000E+00
     -1.09932661940177E-06   6.35121327729923E-24  -1.09932661940177E-06   2.02599321101658E-15   3.74542551272495E-01
      3.74542551272495E-01   0.00000000000000E+00   0.00000000000000E+00   0.00000000000000E+00   0.00000000000000E+00
      0.00000000000000E+00  -4.21274952543610E-17
      2.29001334443696E-01
      1.80000000000000E+00   1.80000000000000E+00   0.00000000000000E+00   0.00000000000000E+00   1.90922032535477E-06
      2.12065702283623E-30   1.90922032535477E-06   4.11261464460624E-15   0.00000000000000E+00   0.00000000000000E+00
      0.00000000000000E+00   0.00000000000000E+00   1.30735186512358E-15  -8.16833603370839E-17   1.22566850478650E-15
     -6.10415949781859E-15   0.00000000000000E+00   0.00000000000000E+00   0.00000000000000E+00   0.00000000000000E+00
     -1.90922032658043E-06  -2.80916109895897E-25  -1.90922032658043E-06   2.02105961204779E-15   4.12202401998653E-01
      4.12202401998653E-01   0.00000000000000E+00   0.00000000000000E+00   0.00000000000000E+00   0.00000000000000E+00
      0.00000000000000E+00  -2.95147588354504E-17