DF-ISE text

Info {
  version   = 1.0
  type      = xyplot
  datasets  = [
    "time"
    "Drain_contact OuterVoltage" "Drain_contact InnerVoltage" "Drain_contact QuasiFermiPotential" "Drain_contact DisplacementCurrent" "Drain_contact eCurrent"
    "Drain_contact hCurrent" "Drain_contact TotalCurrent" "Drain_contact Charge" "Body_contact OuterVoltage" "Body_contact InnerVoltage"
    "Body_contact QuasiFermiPotential" "Body_contact DisplacementCurrent" "Body_contact eCurrent" "Body_contact hCurrent" "Body_contact TotalCurrent"
    "Body_contact Charge" "Source_contact OuterVoltage" "Source_contact InnerVoltage" "Source_contact QuasiFermiPotential" "Source_contact DisplacementCurrent"
    "Source_contact eCurrent" "Source_contact hCurrent" "Source_contact TotalCurrent" "Source_contact Charge" "Gate_contact OuterVoltage"
    "Gate_contact InnerVoltage" "Gate_contact QuasiFermiPotential" "Gate_contact DisplacementCurrent" "Gate_contact eCurrent" "Gate_contact hCurrent"
    "Gate_contact TotalCurrent" "Gate_contact Charge" ]
  functions = [
    Time
    OuterVoltage InnerVoltage QuasiFermiPotential DisplacementCurrent eCurrent
    hCurrent TotalCurrent Charge OuterVoltage InnerVoltage
    QuasiFermiPotential DisplacementCurrent eCurrent hCurrent TotalCurrent
    Charge OuterVoltage InnerVoltage QuasiFermiPotential DisplacementCurrent
    eCurrent hCurrent TotalCurrent Charge OuterVoltage
    InnerVoltage QuasiFermiPotential DisplacementCurrent eCurrent hCurrent
    TotalCurrent Charge ]
}

Data {
      0.00000000000000E+00
      1.80000000000000E+00   1.80000000000000E+00   0.00000000000000E+00   0.00000000000000E+00   1.78046996993220E-18
     -1.78046963138948E-18   3.38542724474319E-25   4.05047926304026E-15   0.00000000000000E+00   0.00000000000000E+00
      0.00000000000000E+00   0.00000000000000E+00   8.30227021269978E-06  -1.53556033740709E-17   8.30227021268442E-06
     -5.91433823227876E-15   0.00000000000000E+00   0.00000000000000E+00   0.00000000000000E+00   0.00000000000000E+00
     -8.30227021268442E-06   2.19607033049345E-23  -8.30227021268442E-06   1.99972686397655E-15   0.00000000000000E+00
      0.00000000000000E+00   0.00000000000000E+00   0.00000000000000E+00   0.00000000000000E+00   0.00000000000000E+00
      0.00000000000000E+00  -1.35867894738055E-16
      0.00000000000000E+00
      1.80000000000000E+00   1.80000000000000E+00   0.00000000000000E+00   0.00000000000000E+00   4.33330633790922E-07
     -2.10330067325795E-30   4.33330633790922E-07   4.05055414346272E-15   0.00000000000000E+00   0.00000000000000E+00
      0.00000000000000E+00   0.00000000000000E+00   7.34452128167321E-17  -7.72187220783698E-17  -3.77350926163777E-18
     -5.91681620587549E-15   0.00000000000000E+00   0.00000000000000E+00   0.00000000000000E+00   0.00000000000000E+00
     -4.33330633787149E-07  -3.68505096320538E-24  -4.33330633787149E-07   2.00192610210232E-15   0.00000000000000E+00
      0.00000000000000E+00   0.00000000000000E+00   0.00000000000000E+00   0.00000000000000E+00   0.00000000000000E+00
      0.00000000000000E+00  -1.35664039689552E-16
      1.00000000000000E-03
      1.80000000000000E+00   1.80000000000000E+00   0.00000000000000E+00   0.00000000000000E+00   4.43891312323110E-07
     -2.97861735940567E-30   4.43891312323110E-07   4.05035818228590E-15   0.00000000000000E+00   0.00000000000000E+00
      0.00000000000000E+00   0.00000000000000E+00   8.06781039946905E-17  -7.72187300883509E-17   3.45937390633955E-18
     -5.91685389669484E-15   0.00000000000000E+00   0.00000000000000E+00   0.00000000000000E+00   0.00000000000000E+00
     -4.43891312326569E-07   4.37195250732435E-24  -4.43891312326569E-07   2.00167936659202E-15   1.80000000000000E-03
      1.80000000000000E-03   0.00000000000000E+00   0.00000000000000E+00   0.00000000000000E+00   0.00000000000000E+00
      0.00000000000000E+00  -1.35183652183088E-16
      2.09466666666667E-03
      1.80000000000000E+00   1.80000000000000E+00   0.00000000000000E+00   0.00000000000000E+00   4.55743768533732E-07
     -4.46210810509676E-30   4.55743768533732E-07   4.05014368236396E-15   0.00000000000000E+00   0.00000000000000E+00
      0.00000000000000E+00   0.00000000000000E+00   7.51346720236022E-17  -7.72187218826262E-17  -2.08404985902404E-18
     -5.91689533372587E-15   0.00000000000000E+00   0.00000000000000E+00   0.00000000000000E+00   0.00000000000000E+00
     -4.55743768531648E-07  -3.78300310459869E-24  -4.55743768531648E-07   2.00140930601831E-15   3.77040000000000E-03
      3.77040000000000E-03   0.00000000000000E+00   0.00000000000000E+00   0.00000000000000E+00   0.00000000000000E+00
      0.00000000000000E+00  -1.34657654656391E-16
      3.29588088888889E-03
      1.80000000000000E+00   1.80000000000000E+00   0.00000000000000E+00   0.00000000000000E+00   4.69109965829920E-07
     -2.36838362650598E-30   4.69109965829920E-07   4.04990831943724E-15   0.00000000000000E+00   0.00000000000000E+00
      0.00000000000000E+00   0.00000000000000E+00   7.61257749378409E-17  -7.72187241924335E-17  -1.09294925459259E-18
     -5.91694102213481E-15   0.00000000000000E+00   0.00000000000000E+00   0.00000000000000E+00   0.00000000000000E+00
     -4.69109965828827E-07  -1.41826648414248E-24  -4.69109965828827E-07   2.00111300084678E-15   5.93258560000000E-03
      5.93258560000000E-03   0.00000000000000E+00   0.00000000000000E+00   0.00000000000000E+00   0.00000000000000E+00
      0.00000000000000E+00  -1.34080298149215E-16
      4.61401329540741E-03
      1.80000000000000E+00   1.80000000000000E+00   0.00000000000000E+00   0.00000000000000E+00   4.84222736419388E-07
      3.29025366145765E-30   4.84222736419388E-07   4.04965006624836E-15   0.00000000000000E+00   0.00000000000000E+00
      0.00000000000000E+00   0.00000000000000E+00   7.13586179023239E-17  -7.72187214064930E-17  -5.86010350416912E-18
     -5.91699142552458E-15   0.00000000000000E+00   0.00000000000000E+00   0.00000000000000E+00   0.00000000000000E+00
     -4.84222736413528E-07  -4.14489776242836E-24  -4.84222736413528E-07   2.00078790789925E-15   8.30522393173334E-03
      8.30522393173334E-03   0.00000000000000E+00   0.00000000000000E+00   0.00000000000000E+00   0.00000000000000E+00
      0.00000000000000E+00  -1.33446548623043E-16
      6.06044392282706E-03
      1.80000000000000E+00   1.80000000000000E+00   0.00000000000000E+00   0.00000000000000E+00   5.01359280118039E-07
      5.51712873117406E-30   5.01359280118039E-07   4.04936669903522E-15   0.00000000000000E+00   0.00000000000000E+00
      0.00000000000000E+00   0.00000000000000E+00   7.84980600220559E-17  -7.72187288053122E-17   1.27933121674361E-18
     -5.91704706459266E-15   0.00000000000000E+00   0.00000000000000E+00   0.00000000000000E+00   0.00000000000000E+00
     -5.01359280119319E-07   3.31772736159862E-24  -5.01359280119319E-07   2.00043123974453E-15   1.09087990610887E-02
      1.09087990610887E-02   0.00000000000000E+00   0.00000000000000E+00   0.00000000000000E+00   0.00000000000000E+00
      0.00000000000000E+00  -1.32750874187073E-16
      7.64766046464890E-03
      1.80000000000000E+00   1.80000000000000E+00   0.00000000000000E+00   0.00000000000000E+00   5.20851480767791E-07
      2.06056647658669E-30   5.20851480767791E-07   4.04905577861425E-15   0.00000000000000E+00   0.00000000000000E+00
      0.00000000000000E+00   0.00000000000000E+00   7.61892855962649E-17  -7.72187301460031E-17  -1.02944454973813E-18
     -5.91710852578434E-15   0.00000000000000E+00   0.00000000000000E+00   0.00000000000000E+00   0.00000000000000E+00
     -5.20851480766762E-07   4.72683048994360E-24  -5.20851480766762E-07   2.00003994194466E-15   1.37657888363680E-02
      1.37657888363680E-02   0.00000000000000E+00   0.00000000000000E+00   0.00000000000000E+00   0.00000000000000E+00
      0.00000000000000E+00  -1.31987194774571E-16
      9.38936608320806E-03
      1.80000000000000E+00   1.80000000000000E+00   0.00000000000000E+00   0.00000000000000E+00   5.43099043473180E-07
     -3.76850496526965E-30   5.43099043473180E-07   4.04871462967976E-15   0.00000000000000E+00   0.00000000000000E+00
      0.00000000000000E+00   0.00000000000000E+00   7.82279356945269E-17  -7.72187224053474E-17   1.00921328917945E-18
     -5.91717647164244E-15   0.00000000000000E+00   0.00000000000000E+00   0.00000000000000E+00   0.00000000000000E+00
     -5.43099043474189E-07  -2.94063372206630E-24  -5.43099043474189E-07   1.99961066841317E-15   1.69008589497745E-02
      1.69008589497745E-02   0.00000000000000E+00   0.00000000000000E+00   0.00000000000000E+00   0.00000000000000E+00
      0.00000000000000E+00  -1.31148826450497E-16
      1.13005977153070E-02
      1.80000000000000E+00   1.80000000000000E+00   0.00000000000000E+00   0.00000000000000E+00   5.68586340535400E-07
      2.08578299321010E-30   5.68586340535400E-07   4.04834031816358E-15   0.00000000000000E+00   0.00000000000000E+00
      0.00000000000000E+00   0.00000000000000E+00   7.67892373722635E-17  -7.72187229364621E-17  -4.29485564198622E-19
     -5.91725165329183E-15   0.00000000000000E+00   0.00000000000000E+00   0.00000000000000E+00   0.00000000000000E+00
     -5.68586340534971E-07  -2.33158856079808E-24  -5.68586340534971E-07   1.99913975481964E-15   2.03410758875526E-02
      2.03410758875526E-02   0.00000000000000E+00   0.00000000000000E+00   0.00000000000000E+00   0.00000000000000E+00
      0.00000000000000E+00  -1.30228419691387E-16
      1.33978558929302E-02
      1.80000000000000E+00   1.80000000000000E+00   0.00000000000000E+00   0.00000000000000E+00   5.97904136102462E-07
     -1.41714648337135E-30   5.97904136102462E-07   4.04792962650702E-15   0.00000000000000E+00   0.00000000000000E+00
      0.00000000000000E+00   0.00000000000000E+00   7.60783101142221E-17  -7.72187300169793E-17  -1.14041990275720E-18
     -5.91733492565624E-15   0.00000000000000E+00   0.00000000000000E+00   0.00000000000000E+00   0.00000000000000E+00
     -5.97904136101322E-07   4.83138041438862E-24  -5.97904136101322E-07   1.99862319000296E-15   2.41161406072744E-02
      2.41161406072744E-02   0.00000000000000E+00   0.00000000000000E+00   0.00000000000000E+00   0.00000000000000E+00
      0.00000000000000E+00  -1.29217890853742E-16
      1.56992471998421E-02
      1.80000000000000E+00   1.80000000000000E+00   0.00000000000000E+00   0.00000000000000E+00   6.31777929301171E-07
     -4.09909390951031E-30   6.31777929301171E-07   4.04747902666553E-15   0.00000000000000E+00   0.00000000000000E+00
      0.00000000000000E+00   0.00000000000000E+00   8.06245401121070E-17  -7.72187255364737E-17   3.40581457563331E-18
     -5.91742726618475E-15   0.00000000000000E+00   0.00000000000000E+00   0.00000000000000E+00   0.00000000000000E+00
     -6.31777929304577E-07   4.37428394498665E-25  -6.31777929304577E-07   1.99805658546299E-15   2.82586449597157E-02
      2.82586449597157E-02   0.00000000000000E+00   0.00000000000000E+00   0.00000000000000E+00   0.00000000000000E+00
      0.00000000000000E+00  -1.28108345943772E-16
      1.82246405939600E-02
      1.80000000000000E+00   1.80000000000000E+00   0.00000000000000E+00   0.00000000000000E+00   6.71104922419362E-07
      4.45521737135134E-30   6.71104922419362E-07   4.04698465056896E-15   0.00000000000000E+00   0.00000000000000E+00
      0.00000000000000E+00   0.00000000000000E+00   8.09068660138571E-17  -7.72187286049132E-17   3.68813740894382E-18
     -5.91752979766207E-15   0.00000000000000E+00   0.00000000000000E+00   0.00000000000000E+00   0.00000000000000E+00
     -6.71104922423051E-07   3.59606251383122E-24  -6.71104922423051E-07   1.99743514286028E-15   3.28043530691281E-02
      3.28043530691281E-02   0.00000000000000E+00   0.00000000000000E+00   0.00000000000000E+00   0.00000000000000E+00
      0.00000000000000E+00  -1.26889995767179E-16
      2.09958389451055E-02
      1.80000000000000E+00   1.80000000000000E+00   0.00000000000000E+00   0.00000000000000E+00   7.17002882938259E-07
     -2.93537628517082E-30   7.17002882938259E-07   4.04644225803799E-15   0.00000000000000E+00   0.00000000000000E+00
      0.00000000000000E+00   0.00000000000000E+00   7.61428472913186E-17  -7.72187271778752E-17  -1.07587988655652E-18
     -5.91764381701996E-15   0.00000000000000E+00   0.00000000000000E+00   0.00000000000000E+00   0.00000000000000E+00
     -7.17002882937183E-07   2.26190560939943E-24  -7.17002882937183E-07   1.99675361992996E-15   3.77925101011899E-02
      3.77925101011899E-02   0.00000000000000E+00   0.00000000000000E+00   0.00000000000000E+00   0.00000000000000E+00
      0.00000000000000E+00  -1.25552060947993E-16
      2.40367672690957E-02
      1.80000000000000E+00   1.80000000000000E+00   0.00000000000000E+00   0.00000000000000E+00   7.70875041546151E-07
     -4.42919713020547E-30   7.70875041546151E-07   4.04584720185427E-15   0.00000000000000E+00   0.00000000000000E+00
      0.00000000000000E+00   0.00000000000000E+00   7.65779564130831E-17  -7.72187287829707E-17  -6.40772369887669E-19
     -5.91777083149571E-15   0.00000000000000E+00   0.00000000000000E+00   0.00000000000000E+00   0.00000000000000E+00
     -7.70875041545511E-07   3.96094746625490E-24  -7.70875041545511E-07   1.99600629509724E-15   4.32661810843724E-02
      4.32661810843724E-02   0.00000000000000E+00   0.00000000000000E+00   0.00000000000000E+00   0.00000000000000E+00
      0.00000000000000E+00  -1.24082665455792E-16
      2.73736792832877E-02
      1.80000000000000E+00   1.80000000000000E+00   0.00000000000000E+00   0.00000000000000E+00   8.34496956765167E-07
     -4.70566165621992E-30   8.34496956765167E-07   4.04519438989382E-15   0.00000000000000E+00   0.00000000000000E+00
      0.00000000000000E+00   0.00000000000000E+00   8.23886539263232E-17  -7.72187281477310E-17   5.16992577859222E-18
     -5.91791260468939E-15   0.00000000000000E+00   0.00000000000000E+00   0.00000000000000E+00   0.00000000000000E+00
     -8.34496956770338E-07   3.41869481855294E-24  -8.34496956770338E-07   1.99518693142893E-15   4.92726227099179E-02
      4.92726227099179E-02   0.00000000000000E+00   0.00000000000000E+00   0.00000000000000E+00   0.00000000000000E+00
      0.00000000000000E+00  -1.22468716633366E-16
      3.10353840668611E-02
      1.80000000000000E+00   1.80000000000000E+00   0.00000000000000E+00   0.00000000000000E+00   9.10133640418214E-07
     -1.05223247484586E-30   9.10133640418214E-07   4.04447824398405E-15   0.00000000000000E+00   0.00000000000000E+00
      0.00000000000000E+00   0.00000000000000E+00   7.85372664683914E-17  -7.72187243395597E-17   1.31854212883166E-18
     -5.91807121504790E-15   0.00000000000000E+00   0.00000000000000E+00   0.00000000000000E+00   0.00000000000000E+00
     -9.10133640419533E-07  -3.00662953012317E-25  -9.10133640419533E-07   1.99428874075166E-15   5.58636913203499E-02
      5.58636913203499E-02   0.00000000000000E+00   0.00000000000000E+00   0.00000000000000E+00   0.00000000000000E+00
      0.00000000000000E+00  -1.20695769687809E-16
      3.50534947827022E-02
      1.80000000000000E+00   1.80000000000000E+00   0.00000000000000E+00   0.00000000000000E+00   1.00069855163285E-06
     -7.02155875180058E-30   1.00069855163285E-06   4.04369265564328E-15   0.00000000000000E+00   0.00000000000000E+00
      0.00000000000000E+00   0.00000000000000E+00   7.51020139541687E-17  -7.72187235478030E-17  -2.11670959363426E-18
     -5.91824913187779E-15   0.00000000000000E+00   0.00000000000000E+00   0.00000000000000E+00   0.00000000000000E+00
     -1.00069855163073E-06  -1.01186915566324E-24  -1.00069855163073E-06   1.99330434953003E-15   6.30962906088640E-02
      6.30962906088640E-02   0.00000000000000E+00   0.00000000000000E+00   0.00000000000000E+00   0.00000000000000E+00
      0.00000000000000E+00  -1.18747873295529E-16
      3.94627016082186E-02
      1.80000000000000E+00   1.80000000000000E+00   0.00000000000000E+00   0.00000000000000E+00   1.10997082196609E-06
      2.64659863600419E-30   1.10997082196609E-06   4.04283093873989E-15   0.00000000000000E+00   0.00000000000000E+00
      0.00000000000000E+00   0.00000000000000E+00   7.67405477252286E-17  -7.72187242694609E-17  -4.78176544232348E-19
     -5.91844931497255E-15   0.00000000000000E+00   0.00000000000000E+00   0.00000000000000E+00   0.00000000000000E+00
     -1.10997082196562E-06  -2.23954669955355E-25  -1.10997082196562E-06   1.99222576859044E-15   7.10328628947935E-02
      7.10328628947935E-02   0.00000000000000E+00   0.00000000000000E+00   0.00000000000000E+00   0.00000000000000E+00
      0.00000000000000E+00  -1.16607392357773E-16
      4.43010712314185E-02
      1.80000000000000E+00   1.80000000000000E+00   0.00000000000000E+00   0.00000000000000E+00   1.24289392886807E-06
      3.90100560410168E-30   1.24289392886807E-06   4.04188577816540E-15   0.00000000000000E+00   0.00000000000000E+00
      0.00000000000000E+00   0.00000000000000E+00   7.82690582226438E-17  -7.72187196786373E-17   1.05033854400646E-18
     -5.91867534245271E-15   0.00000000000000E+00   0.00000000000000E+00   0.00000000000000E+00   0.00000000000000E+00
     -1.24289392886912E-06  -4.77142091186507E-24  -1.24289392886912E-06   1.99104436885597E-15   7.97419282165534E-02
      7.97419282165534E-02   0.00000000000000E+00   0.00000000000000E+00   0.00000000000000E+00   0.00000000000000E+00
      0.00000000000000E+00  -1.14254804568675E-16
      4.96103754979433E-02
      1.80000000000000E+00   1.80000000000000E+00   0.00000000000000E+00   0.00000000000000E+00   1.40598794294877E-06
      2.52553085791833E-30   1.40598794294877E-06   4.04084917623729E-15   0.00000000000000E+00   0.00000000000000E+00
      0.00000000000000E+00   0.00000000000000E+00   7.18853554805951E-17  -7.72187196653702E-17  -5.33336418477516E-18
     -5.91893158266493E-15   0.00000000000000E+00   0.00000000000000E+00   0.00000000000000E+00   0.00000000000000E+00
     -1.40598794294344E-06  -4.77604814755947E-24  -1.40598794294344E-06   1.98975086841141E-15   8.92986758962979E-02
      8.92986758962979E-02   0.00000000000000E+00   0.00000000000000E+00   0.00000000000000E+00   0.00000000000000E+00
      0.00000000000000E+00  -1.11668461983774E-16
      5.54364520464098E-02
      1.80000000000000E+00   1.80000000000000E+00   0.00000000000000E+00   0.00000000000000E+00   1.60792044024000E-06
     -3.47436745476266E-30   1.60792044024000E-06   4.03971239583442E-15   0.00000000000000E+00   0.00000000000000E+00
      0.00000000000000E+00   0.00000000000000E+00   6.53670638707439E-17  -7.72187223627221E-17  -1.18516584919782E-17
     -5.91922341957310E-15   0.00000000000000E+00   0.00000000000000E+00   0.00000000000000E+00   0.00000000000000E+00
     -1.60792044022815E-06  -2.12086057647913E-24  -1.60792044022815E-06   1.98833533510621E-15   9.97856136835376E-02
      9.97856136835376E-02   0.00000000000000E+00   0.00000000000000E+00   0.00000000000000E+00   0.00000000000000E+00
      0.00000000000000E+00  -1.08824311367529E-16
      6.18296000455937E-02
      1.80000000000000E+00   1.80000000000000E+00   0.00000000000000E+00   0.00000000000000E+00   1.86029894173503E-06
     -4.04232010094089E-30   1.86029894173503E-06   4.03846590038241E-15   0.00000000000000E+00   0.00000000000000E+00
      0.00000000000000E+00   0.00000000000000E+00   4.37553972991668E-17  -7.72187225545336E-17  -3.34633252553668E-17
     -5.91955754818671E-15   0.00000000000000E+00   0.00000000000000E+00   0.00000000000000E+00   0.00000000000000E+00
     -1.86029894170156E-06  -2.04458456000522E-24  -1.86029894170156E-06   1.98678721169899E-15   1.11293280082069E-01
      1.11293280082069E-01   0.00000000000000E+00   0.00000000000000E+00   0.00000000000000E+00   0.00000000000000E+00
      0.00000000000000E+00  -1.05695563894677E-16
      6.88450144500315E-02
      1.80000000000000E+00   1.80000000000000E+00   0.00000000000000E+00   0.00000000000000E+00   2.17876511055721E-06
      4.27569026286568E-31   2.17876511055721E-06   4.03709929330313E-15   0.00000000000000E+00   0.00000000000000E+00
      0.00000000000000E+00   0.00000000000000E+00  -2.57752288995103E-17  -7.72187253004291E-17  -1.02993954199939E-16
     -5.91994237097351E-15   0.00000000000000E+00   0.00000000000000E+00   0.00000000000000E+00   0.00000000000000E+00
     -2.17876511045421E-06   4.81455799835968E-25  -2.17876511045421E-06   1.98509537369158E-15   1.23921026010057E-01
      1.23921026010057E-01   0.00000000000000E+00   0.00000000000000E+00   0.00000000000000E+00   0.00000000000000E+00
      0.00000000000000E+00  -1.02252296021190E-16
      7.65432625231679E-02
      1.80000000000000E+00   1.80000000000000E+00   0.00000000000000E+00   0.00000000000000E+00   2.58449879042302E-06
     -2.80524246776439E-30   2.58449879042302E-06   4.03560125558140E-15   0.00000000000000E+00   0.00000000000000E+00
      0.00000000000000E+00   0.00000000000000E+00  -2.33212143513948E-16  -7.72187227676916E-17  -3.10430866281639E-16
     -5.92038851434836E-15   0.00000000000000E+00   0.00000000000000E+00   0.00000000000000E+00   0.00000000000000E+00
     -2.58449879011259E-06  -2.41934224082039E-24  -2.58449879011259E-06   1.98324822832353E-15   1.37777872541702E-01
      1.37777872541702E-01   0.00000000000000E+00   0.00000000000000E+00   0.00000000000000E+00   0.00000000000000E+00
      0.00000000000000E+00  -9.84609695565738E-17
      8.49908067420896E-02
      1.80000000000000E+00   1.80000000000000E+00   0.00000000000000E+00   0.00000000000000E+00   3.10625544099207E-06
     -2.30300964014710E-30   3.10625544099207E-06   4.03395948434116E-15   0.00000000000000E+00   0.00000000000000E+00
      0.00000000000000E+00   0.00000000000000E+00  -8.37339476037102E-16  -7.72187267707016E-17  -9.14558202807804E-16
     -5.92090950143266E-15   0.00000000000000E+00   0.00000000000000E+00   0.00000000000000E+00   0.00000000000000E+00
     -3.10625544007751E-06   1.00676094667926E-24  -3.10625544007751E-06   1.98123386597503E-15   1.52983452135761E-01
      1.52983452135761E-01   0.00000000000000E+00   0.00000000000000E+00   0.00000000000000E+00   0.00000000000000E+00
      0.00000000000000E+00  -9.42838488835335E-17
      9.42605785983196E-02
      1.80000000000000E+00   1.80000000000000E+00   0.00000000000000E+00   0.00000000000000E+00   3.78306813591472E-06
      4.41008254320273E-30   3.78306813591472E-06   4.03216062361624E-15   0.00000000000000E+00   0.00000000000000E+00
      0.00000000000000E+00   0.00000000000000E+00  -2.62497618683662E-15  -7.72187299064750E-17  -2.70219491674310E-15
     -5.92152258280767E-15   0.00000000000000E+00   0.00000000000000E+00   0.00000000000000E+00   0.00000000000000E+00
     -3.78306813321253E-06   3.27401334166121E-24  -3.78306813321253E-06   1.97904026541351E-15   1.69669041476975E-01
      1.69669041476975E-01   0.00000000000000E+00   0.00000000000000E+00   0.00000000000000E+00   0.00000000000000E+00
      0.00000000000000E+00  -8.96783062220859E-17
      1.04432608248556E-01
      1.80000000000000E+00   1.80000000000000E+00   0.00000000000000E+00   0.00000000000000E+00   4.66770516860977E-06
     -4.24688619046979E-30   4.66770516860977E-06   4.03019019431845E-15   0.00000000000000E+00   0.00000000000000E+00
      0.00000000000000E+00   0.00000000000000E+00  -7.67583010027590E-15  -7.72187238981325E-17  -7.75304882417404E-15
     -5.92224975795221E-15   0.00000000000000E+00   0.00000000000000E+00   0.00000000000000E+00   0.00000000000000E+00
     -4.66770516085674E-06  -4.00672279342511E-24  -4.66770516085674E-06   1.97665555468241E-15   1.87978694847401E-01
      1.87978694847401E-01   0.00000000000000E+00   0.00000000000000E+00   0.00000000000000E+00   0.00000000000000E+00
      0.00000000000000E+00  -8.45959910486429E-17
      1.15594715451416E-01
      1.80000000000000E+00   1.80000000000000E+00   0.00000000000000E+00   0.00000000000000E+00   5.83086535581683E-06
     -4.21636397919430E-30   5.83086535581683E-06   4.02803250928644E-15   0.00000000000000E+00   0.00000000000000E+00
      0.00000000000000E+00   0.00000000000000E+00  -2.12379823881962E-14  -7.72187293869556E-17  -2.13152011175831E-14
     -5.92311893024543E-15   0.00000000000000E+00   0.00000000000000E+00   0.00000000000000E+00   0.00000000000000E+00
     -5.83086533450164E-06  -3.48791182594682E-25  -5.83086533450164E-06   1.97406829989655E-15   2.08070487812548E-01
      2.08070487812548E-01   0.00000000000000E+00   0.00000000000000E+00   0.00000000000000E+00   0.00000000000000E+00
      0.00000000000000E+00  -7.89818789375653E-17
      1.27843267755353E-01
      1.80000000000000E+00   1.80000000000000E+00   0.00000000000000E+00   0.00000000000000E+00   7.36586194357392E-06
     -2.10109263858573E-29   7.36586194357392E-06   4.02567056408893E-15   0.00000000000000E+00   0.00000000000000E+00
      0.00000000000000E+00   0.00000000000000E+00  -5.51240098870576E-14  -7.72187333943058E-17  -5.52012286204519E-14
     -5.92416510481445E-15   0.00000000000000E+00   0.00000000000000E+00   0.00000000000000E+00   0.00000000000000E+00
     -7.36586188837271E-06   1.06688432335934E-24  -7.36586188837271E-06   1.97126777015321E-15   2.30117881959636E-01
      2.30117881959636E-01   0.00000000000000E+00   0.00000000000000E+00   0.00000000000000E+00   0.00000000000000E+00
      0.00000000000000E+00  -7.27732294276924E-17
      1.41284012483541E-01
      1.80000000000000E+00   1.80000000000000E+00   0.00000000000000E+00   0.00000000000000E+00   9.39320048359704E-06
      3.81138527654416E-30   9.39320048359704E-06   4.02308587444880E-15   0.00000000000000E+00   0.00000000000000E+00
      0.00000000000000E+00   0.00000000000000E+00   7.63378663974546E-17  -7.72187381325503E-17  -8.80871735095638E-19
     -5.92543140168367E-15   0.00000000000000E+00   0.00000000000000E+00   0.00000000000000E+00   0.00000000000000E+00
     -9.39320048359618E-06   2.19295038188138E-24  -9.39320048359618E-06   1.96824408047610E-15   2.54311222470374E-01
      2.54311222470374E-01   0.00000000000000E+00   0.00000000000000E+00   0.00000000000000E+00   0.00000000000000E+00
      0.00000000000000E+00  -6.58985532412244E-17
      1.55997147712664E-01
      1.80000000000000E+00   1.80000000000000E+00   0.00000000000000E+00   0.00000000000000E+00   1.20569348648932E-05
      1.23492916037275E-30   1.20569348648932E-05   4.02026514442050E-15   0.00000000000000E+00   0.00000000000000E+00
      0.00000000000000E+00   0.00000000000000E+00   7.89685883583868E-17  -7.72187395029147E-17   1.74984885547214E-18
     -5.92696582634731E-15   0.00000000000000E+00   0.00000000000000E+00   0.00000000000000E+00   0.00000000000000E+00
     -1.20569348648950E-05  -1.38859689390714E-24  -1.20569348648950E-05   1.96499595225740E-15   2.80794865882795E-01
      2.80794865882795E-01   0.00000000000000E+00   0.00000000000000E+00   0.00000000000000E+00   0.00000000000000E+00
      0.00000000000000E+00  -5.82952703305806E-17
      1.72103126410144E-01
      1.80000000000000E+00   1.80000000000000E+00   0.00000000000000E+00   0.00000000000000E+00   1.55343531109900E-05
      4.25514929228886E-31   1.55343531109900E-05   4.01718742808368E-15   0.00000000000000E+00   0.00000000000000E+00
      0.00000000000000E+00   0.00000000000000E+00   7.48769264052503E-17  -7.72187525890446E-17  -2.34182618379432E-18
     -5.92882679613450E-15   0.00000000000000E+00   0.00000000000000E+00   0.00000000000000E+00   0.00000000000000E+00
     -1.55343531109877E-05   5.00744254842018E-24  -1.55343531109877E-05   1.96151553391618E-15   3.09785627538259E-01
      3.09785627538259E-01   0.00000000000000E+00   0.00000000000000E+00   0.00000000000000E+00   0.00000000000000E+00
      0.00000000000000E+00  -4.98761658653704E-17
      1.89733804424318E-01
      1.80000000000000E+00   1.80000000000000E+00   0.00000000000000E+00   0.00000000000000E+00   2.00300758373815E-05
      2.93485799292549E-30   2.00300758373815E-05   4.01382950379214E-15   0.00000000000000E+00   0.00000000000000E+00
      0.00000000000000E+00   0.00000000000000E+00   7.40489578730103E-17  -7.72187595241504E-17  -3.16980165114010E-18
     -5.93107964975728E-15   0.00000000000000E+00   0.00000000000000E+00   0.00000000000000E+00   0.00000000000000E+00
     -2.00300758373783E-05   3.07720856219444E-24  -2.00300758373783E-05   1.95779445176349E-15   3.41520847963773E-01
      3.41520847963773E-01   0.00000000000000E+00   0.00000000000000E+00   0.00000000000000E+00   0.00000000000000E+00
      0.00000000000000E+00  -4.05443057983473E-17
      2.09033519957168E-01
      1.80000000000000E+00   1.80000000000000E+00   0.00000000000000E+00   0.00000000000000E+00   2.57704767756311E-05
     -1.71324755474708E-30   2.57704767756311E-05   4.01016542459194E-15   0.00000000000000E+00   0.00000000000000E+00
      0.00000000000000E+00   0.00000000000000E+00   7.42375469802394E-17  -7.72187701037907E-17  -2.98122312355137E-18
     -5.93379490939074E-15   0.00000000000000E+00   0.00000000000000E+00   0.00000000000000E+00   0.00000000000000E+00
     -2.57704767756281E-05   2.12422901176236E-24  -2.57704767756281E-05   1.95382271040707E-15   3.76260335922903E-01
      3.76260335922903E-01   0.00000000000000E+00   0.00000000000000E+00   0.00000000000000E+00   0.00000000000000E+00
      0.00000000000000E+00  -3.01932256082643E-17
      2.30160275227128E-01
      1.80000000000000E+00   1.80000000000000E+00   0.00000000000000E+00   0.00000000000000E+00   3.29961027722589E-05
     -1.85440251157979E-30   3.29961027722589E-05   4.00616614212287E-15   0.00000000000000E+00   0.00000000000000E+00
      0.00000000000000E+00   0.00000000000000E+00   7.62088430235660E-17  -7.72187806249236E-17  -1.00993760135755E-18
     -5.93704651496363E-15   0.00000000000000E+00   0.00000000000000E+00   0.00000000000000E+00   0.00000000000000E+00
     -3.29961027722579E-05  -2.09629968360482E-24  -3.29961027722579E-05   1.94958754589603E-15   4.14288495408830E-01
      4.14288495408830E-01   0.00000000000000E+00   0.00000000000000E+00   0.00000000000000E+00   0.00000000000000E+00
      0.00000000000000E+00  -1.87071730552813E-17