DF-ISE text

Info {
  version   = 1.0
  type      = xyplot
  datasets  = [
    "time"
    "Drain_contact OuterVoltage" "Drain_contact InnerVoltage" "Drain_contact QuasiFermiPotential" "Drain_contact DisplacementCurrent" "Drain_contact eCurrent"
    "Drain_contact hCurrent" "Drain_contact TotalCurrent" "Drain_contact Charge" "Body_contact OuterVoltage" "Body_contact InnerVoltage"
    "Body_contact QuasiFermiPotential" "Body_contact DisplacementCurrent" "Body_contact eCurrent" "Body_contact hCurrent" "Body_contact TotalCurrent"
    "Body_contact Charge" "Source_contact OuterVoltage" "Source_contact InnerVoltage" "Source_contact QuasiFermiPotential" "Source_contact DisplacementCurrent"
    "Source_contact eCurrent" "Source_contact hCurrent" "Source_contact TotalCurrent" "Source_contact Charge" "Gate_contact OuterVoltage"
    "Gate_contact InnerVoltage" "Gate_contact QuasiFermiPotential" "Gate_contact DisplacementCurrent" "Gate_contact eCurrent" "Gate_contact hCurrent"
    "Gate_contact TotalCurrent" "Gate_contact Charge" ]
  functions = [
    Time
    OuterVoltage InnerVoltage QuasiFermiPotential DisplacementCurrent eCurrent
    hCurrent TotalCurrent Charge OuterVoltage InnerVoltage
    QuasiFermiPotential DisplacementCurrent eCurrent hCurrent TotalCurrent
    Charge OuterVoltage InnerVoltage QuasiFermiPotential DisplacementCurrent
    eCurrent hCurrent TotalCurrent Charge OuterVoltage
    InnerVoltage QuasiFermiPotential DisplacementCurrent eCurrent hCurrent
    TotalCurrent Charge ]
}

Data {
      0.00000000000000E+00
      1.80000000000000E+00   1.80000000000000E+00   0.00000000000000E+00   0.00000000000000E+00   1.77900913456385E-18
     -1.78040497562350E-18  -1.39584105964546E-21   4.14615089237968E-15   0.00000000000000E+00   0.00000000000000E+00
      0.00000000000000E+00   0.00000000000000E+00   6.78089434205489E-05  -1.53556027122174E-17   6.78089434205336E-05
     -5.92977497551439E-15   0.00000000000000E+00   0.00000000000000E+00   0.00000000000000E+00   0.00000000000000E+00
     -6.78089434205336E-05   2.12988601590678E-23  -6.78089434205336E-05   1.98774492990285E-15   0.00000000000000E+00
      0.00000000000000E+00   0.00000000000000E+00   0.00000000000000E+00   0.00000000000000E+00   0.00000000000000E+00
      0.00000000000000E+00  -2.04120846768139E-16
      0.00000000000000E+00
      1.80000000000000E+00   1.80000000000000E+00   0.00000000000000E+00   0.00000000000000E+00   1.70319289110480E-05
     -6.95942547751177E-30   1.70319289110480E-05   4.14805244507322E-15   0.00000000000000E+00   0.00000000000000E+00
      0.00000000000000E+00   0.00000000000000E+00   1.15640763065512E-14  -7.72184690088085E-17   1.14868578375424E-14
     -5.95471029618552E-15   0.00000000000000E+00   0.00000000000000E+00   0.00000000000000E+00   0.00000000000000E+00
     -1.70319289225349E-05   2.88755984420665E-26  -1.70319289225349E-05   2.00845532207062E-15   0.00000000000000E+00
      0.00000000000000E+00   0.00000000000000E+00   0.00000000000000E+00   0.00000000000000E+00   0.00000000000000E+00
      0.00000000000000E+00  -2.01797470958326E-16
      1.00000000000000E-03
      1.80000000000000E+00   1.80000000000000E+00   0.00000000000000E+00   0.00000000000000E+00   1.72332332364855E-05
      8.73954431926459E-31   1.72332332364855E-05   4.14782173355340E-15   0.00000000000000E+00   0.00000000000000E+00
      0.00000000000000E+00   0.00000000000000E+00   7.99526083104359E-17  -7.72184676926779E-17   2.73414061775801E-18
     -5.95482149949404E-15   0.00000000000000E+00   0.00000000000000E+00   0.00000000000000E+00   0.00000000000000E+00
     -1.72332332364883E-05  -1.70016836427116E-24  -1.72332332364883E-05   2.00824155144679E-15   1.80000000000000E-03
      1.80000000000000E-03   0.00000000000000E+00   0.00000000000000E+00   0.00000000000000E+00   0.00000000000000E+00
      0.00000000000000E+00  -2.01241785506155E-16
      2.09466666666667E-03
      1.80000000000000E+00   1.80000000000000E+00   0.00000000000000E+00   0.00000000000000E+00   1.74557802353753E-05
      1.16926216661211E-30   1.74557802353753E-05   4.14756933972723E-15   0.00000000000000E+00   0.00000000000000E+00
      0.00000000000000E+00   0.00000000000000E+00   6.63296815376758E-17  -7.72184641935088E-17  -1.08887826558329E-17
     -5.95494387916316E-15   0.00000000000000E+00   0.00000000000000E+00   0.00000000000000E+00   0.00000000000000E+00
     -1.74557802353644E-05  -5.65629381646593E-24  -1.74557802353644E-05   2.00800780567269E-15   3.77040000000000E-03
      3.77040000000000E-03   0.00000000000000E+00   0.00000000000000E+00   0.00000000000000E+00   0.00000000000000E+00
      0.00000000000000E+00  -2.00633266236753E-16
      3.29588088888889E-03
      1.80000000000000E+00   1.80000000000000E+00   0.00000000000000E+00   0.00000000000000E+00   1.77026297436147E-05
      6.00381902850536E-31   1.77026297436147E-05   4.14729257083253E-15   0.00000000000000E+00   0.00000000000000E+00
      0.00000000000000E+00   0.00000000000000E+00   8.78772855282341E-17  -7.72184711353083E-17   1.06588143929257E-17
     -5.95507895313661E-15   0.00000000000000E+00   0.00000000000000E+00   0.00000000000000E+00   0.00000000000000E+00
     -1.77026297436254E-05   7.78082789184419E-25  -1.77026297436254E-05   2.00775162327475E-15   5.93258560000000E-03
      5.93258560000000E-03   0.00000000000000E+00   0.00000000000000E+00   0.00000000000000E+00   0.00000000000000E+00
      0.00000000000000E+00  -1.99965240970666E-16
      4.61401329540741E-03
      1.80000000000000E+00   1.80000000000000E+00   0.00000000000000E+00   0.00000000000000E+00   1.79767026083136E-05
     -3.24143265126340E-30   1.79767026083136E-05   4.14698909435963E-15   0.00000000000000E+00   0.00000000000000E+00
      0.00000000000000E+00   0.00000000000000E+00   7.83266472008355E-17  -7.72184733058052E-17   1.10817389503029E-18
     -5.95522812015512E-15   0.00000000000000E+00   0.00000000000000E+00   0.00000000000000E+00   0.00000000000000E+00
     -1.79767026083147E-05   2.38457335178304E-24  -1.79767026083147E-05   2.00747088542899E-15   8.30522393173334E-03
      8.30522393173334E-03   0.00000000000000E+00   0.00000000000000E+00   0.00000000000000E+00   0.00000000000000E+00
      0.00000000000000E+00  -1.99231859633511E-16
      6.06044392282706E-03
      1.80000000000000E+00   1.80000000000000E+00   0.00000000000000E+00   0.00000000000000E+00   1.82813211965448E-05
     -1.91242240071499E-30   1.82813211965448E-05   4.14665635910772E-15   0.00000000000000E+00   0.00000000000000E+00
      0.00000000000000E+00   0.00000000000000E+00   7.75857786558859E-17  -7.72184675415791E-17   3.67311114306885E-19
     -5.95539294855841E-15   0.00000000000000E+00   0.00000000000000E+00   0.00000000000000E+00   0.00000000000000E+00
     -1.82813211965452E-05  -4.00735706589005E-24  -1.82813211965452E-05   2.00716327997267E-15   1.09087990610887E-02
      1.09087990610887E-02   0.00000000000000E+00   0.00000000000000E+00   0.00000000000000E+00   0.00000000000000E+00
      0.00000000000000E+00  -1.98426690521980E-16
      7.64766046464890E-03
      1.80000000000000E+00   1.80000000000000E+00   0.00000000000000E+00   0.00000000000000E+00   1.86202734193166E-05
      7.55738264056445E-31   1.86202734193166E-05   4.14629157560042E-15   0.00000000000000E+00   0.00000000000000E+00
      0.00000000000000E+00   0.00000000000000E+00   7.42016632011906E-17  -7.72184694413929E-17  -3.01680624020238E-18
     -5.95557519982616E-15   0.00000000000000E+00   0.00000000000000E+00   0.00000000000000E+00   0.00000000000000E+00
     -1.86202734193136E-05  -2.80642193881216E-24  -1.86202734193136E-05   2.00682628543838E-15   1.37657888363680E-02
      1.37657888363680E-02   0.00000000000000E+00   0.00000000000000E+00   0.00000000000000E+00   0.00000000000000E+00
      0.00000000000000E+00  -1.97542661212632E-16
      9.38936608320806E-03
      1.80000000000000E+00   1.80000000000000E+00   0.00000000000000E+00   0.00000000000000E+00   1.89978872986318E-05
      1.76741865816594E-30   1.89978872986318E-05   4.14589169492568E-15   0.00000000000000E+00   0.00000000000000E+00
      0.00000000000000E+00   0.00000000000000E+00   8.37172961128387E-17  -7.72184706017267E-17   6.49882551111199E-18
     -5.95577685573842E-15   0.00000000000000E+00   0.00000000000000E+00   0.00000000000000E+00   0.00000000000000E+00
     -1.89978872986384E-05  -2.42578666187942E-24  -1.89978872986384E-05   2.00645715415973E-15   1.69008589497745E-02
      1.69008589497745E-02   0.00000000000000E+00   0.00000000000000E+00   0.00000000000000E+00   0.00000000000000E+00
      0.00000000000000E+00  -1.96571993346992E-16
      1.13005977153070E-02
      1.80000000000000E+00   1.80000000000000E+00   0.00000000000000E+00   0.00000000000000E+00   1.94191245132264E-05
      1.75213792381889E-31   1.94191245132264E-05   4.14545338843319E-15   0.00000000000000E+00   0.00000000000000E+00
      0.00000000000000E+00   0.00000000000000E+00   8.96060434008074E-17  -7.72184762175715E-17   1.23875671832358E-17
     -5.95600015887714E-15   0.00000000000000E+00   0.00000000000000E+00   0.00000000000000E+00   0.00000000000000E+00
     -1.94191245132388E-05   2.31896188482293E-24  -1.94191245132388E-05   2.00605289603182E-15   2.03410758875526E-02
      2.03410758875526E-02   0.00000000000000E+00   0.00000000000000E+00   0.00000000000000E+00   0.00000000000000E+00
      0.00000000000000E+00  -1.95506125587862E-16
      1.33978558929302E-02
      1.80000000000000E+00   1.80000000000000E+00   0.00000000000000E+00   0.00000000000000E+00   1.98896907057362E-05
     -1.06902025262962E-30   1.98896907057362E-05   4.14497301954232E-15   0.00000000000000E+00   0.00000000000000E+00
      0.00000000000000E+00   0.00000000000000E+00   7.58974572495814E-17  -7.72184696976018E-17  -1.32101244802044E-18
     -5.95624763349076E-15   0.00000000000000E+00   0.00000000000000E+00   0.00000000000000E+00   0.00000000000000E+00
     -1.98896907057349E-05  -5.17572879856452E-24  -1.98896907057349E-05   2.00561025510620E-15   2.41161406072744E-02
      2.41161406072744E-02   0.00000000000000E+00   0.00000000000000E+00   0.00000000000000E+00   0.00000000000000E+00
      0.00000000000000E+00  -1.94335641157764E-16
      1.56992471998421E-02
      1.80000000000000E+00   1.80000000000000E+00   0.00000000000000E+00   0.00000000000000E+00   2.04161547252223E-05
     -1.34434419073514E-30   2.04161547252223E-05   4.14444661826085E-15   0.00000000000000E+00   0.00000000000000E+00
      0.00000000000000E+00   0.00000000000000E+00   6.65694495225336E-17  -7.72184745508712E-17  -1.06490250283375E-17
     -5.95652213507137E-15   0.00000000000000E+00   0.00000000000000E+00   0.00000000000000E+00   0.00000000000000E+00
     -2.04161547252117E-05  -1.41383028783599E-24  -2.04161547252117E-05   2.00512569078007E-15   2.82586449597157E-02
      2.82586449597157E-02   0.00000000000000E+00   0.00000000000000E+00   0.00000000000000E+00   0.00000000000000E+00
      0.00000000000000E+00  -1.93050173969545E-16
      1.82246405939600E-02
      1.80000000000000E+00   1.80000000000000E+00   0.00000000000000E+00   0.00000000000000E+00   2.10061035276110E-05
      9.52561314137235E-31   2.10061035276110E-05   4.14386985699794E-15   0.00000000000000E+00   0.00000000000000E+00
      0.00000000000000E+00   0.00000000000000E+00   8.59308990439263E-17  -7.72184742047496E-17   8.71242483917667E-18
     -5.95682691175745E-15   0.00000000000000E+00   0.00000000000000E+00   0.00000000000000E+00   0.00000000000000E+00
     -2.10061035276197E-05  -2.98466726834471E-24  -2.10061035276197E-05   2.00459536155815E-15   3.28043530691281E-02
      3.28043530691281E-02   0.00000000000000E+00   0.00000000000000E+00   0.00000000000000E+00   0.00000000000000E+00
      0.00000000000000E+00  -1.91638306798646E-16
      2.09958389451055E-02
      1.80000000000000E+00   1.80000000000000E+00   0.00000000000000E+00   0.00000000000000E+00   2.16683086294133E-05
     -1.62818935165979E-30   2.16683086294133E-05   4.14323801984228E-15   0.00000000000000E+00   0.00000000000000E+00
      0.00000000000000E+00   0.00000000000000E+00   9.05816553862300E-17  -7.72184788203137E-17   1.33631765659164E-17
     -5.95716565811602E-15   0.00000000000000E+00   0.00000000000000E+00   0.00000000000000E+00   0.00000000000000E+00
     -2.16683086294267E-05   2.53456795643640E-25  -2.16683086294267E-05   2.00401509912222E-15   3.77925101011899E-02
      3.77925101011899E-02   0.00000000000000E+00   0.00000000000000E+00   0.00000000000000E+00   0.00000000000000E+00
      0.00000000000000E+00  -1.90087460848484E-16
      2.40367672690957E-02
      1.80000000000000E+00   1.80000000000000E+00   0.00000000000000E+00   0.00000000000000E+00   2.24129746201124E-05
     -1.66284273376473E-32   2.24129746201124E-05   4.14254596265457E-15   0.00000000000000E+00   0.00000000000000E+00
      0.00000000000000E+00   0.00000000000000E+00   8.88477826248193E-17  -7.72184743011434E-17   1.16293083236759E-17
     -5.95754255522409E-15   0.00000000000000E+00   0.00000000000000E+00   0.00000000000000E+00   0.00000000000000E+00
     -2.24129746201241E-05  -5.81801458883194E-24  -2.24129746201241E-05   2.00338037968186E-15   4.32661810843724E-02
      4.32661810843724E-02   0.00000000000000E+00   0.00000000000000E+00   0.00000000000000E+00   0.00000000000000E+00
      0.00000000000000E+00  -1.88383787112338E-16
      2.73736792832877E-02
      1.80000000000000E+00   1.80000000000000E+00   0.00000000000000E+00   0.00000000000000E+00   2.32519158658994E-05
     -6.37445314253469E-31   2.32519158658994E-05   4.14178810710590E-15   0.00000000000000E+00   0.00000000000000E+00
      0.00000000000000E+00   0.00000000000000E+00   7.36649379469250E-17  -7.72184762613193E-17  -3.55353831439433E-18
     -5.95796244471741E-15   0.00000000000000E+00   0.00000000000000E+00   0.00000000000000E+00   0.00000000000000E+00
     -2.32519158658959E-05  -5.61053660841605E-24  -2.32519158658959E-05   2.00268632539769E-15   4.92726227099179E-02
      4.92726227099179E-02   0.00000000000000E+00   0.00000000000000E+00   0.00000000000000E+00   0.00000000000000E+00
      0.00000000000000E+00  -1.86511987786177E-16
      3.10353840668611E-02
      1.80000000000000E+00   1.80000000000000E+00   0.00000000000000E+00   0.00000000000000E+00   2.41989196635125E-05
      7.31801088171934E-31   2.41989196635125E-05   4.14095837871227E-15   0.00000000000000E+00   0.00000000000000E+00
      0.00000000000000E+00   0.00000000000000E+00   8.31012955037542E-17  -7.72184785273720E-17   5.88281697638220E-18
     -5.95843083162331E-15   0.00000000000000E+00   0.00000000000000E+00   0.00000000000000E+00   0.00000000000000E+00
     -2.41989196635184E-05  -5.32760586054532E-24  -2.41989196635184E-05   2.00192765575690E-15   5.58636913203499E-02
      5.58636913203499E-02   0.00000000000000E+00   0.00000000000000E+00   0.00000000000000E+00   0.00000000000000E+00
      0.00000000000000E+00  -1.84455202845862E-16
      3.50534947827022E-02
      1.80000000000000E+00   1.80000000000000E+00   0.00000000000000E+00   0.00000000000000E+00   2.52701880945836E-05
      4.59260160527631E-31   2.52701880945836E-05   4.14005015180974E-15   0.00000000000000E+00   0.00000000000000E+00
      0.00000000000000E+00   0.00000000000000E+00   8.40377888040798E-17  -7.72184812007281E-17   6.81930760335166E-18
     -5.95895393944387E-15   0.00000000000000E+00   0.00000000000000E+00   0.00000000000000E+00   0.00000000000000E+00
     -2.52701880945904E-05  -4.90311697739203E-24  -2.52701880945904E-05   2.00109865301195E-15   6.30962906088640E-02
      6.30962906088640E-02   0.00000000000000E+00   0.00000000000000E+00   0.00000000000000E+00   0.00000000000000E+00
      0.00000000000000E+00  -1.82194865377809E-16
      3.94627016082186E-02
      1.80000000000000E+00   1.80000000000000E+00   0.00000000000000E+00   0.00000000000000E+00   2.64845932162816E-05
     -2.57233691066978E-30   2.64845932162816E-05   4.13905625554767E-15   0.00000000000000E+00   0.00000000000000E+00
      0.00000000000000E+00   0.00000000000000E+00   7.76719110970498E-17  -7.72184845204003E-17   4.53426576649499E-19
     -5.95953897888894E-15   0.00000000000000E+00   0.00000000000000E+00   0.00000000000000E+00   0.00000000000000E+00
     -2.64845932162821E-05  -4.13936138698576E-24  -2.64845932162821E-05   2.00019317047590E-15   7.10328628947935E-02
      7.10328628947935E-02   0.00000000000000E+00   0.00000000000000E+00   0.00000000000000E+00   0.00000000000000E+00
      0.00000000000000E+00  -1.79710447134625E-16
      4.43010712314185E-02
      1.80000000000000E+00   1.80000000000000E+00   0.00000000000000E+00   0.00000000000000E+00   2.78642425472941E-05
     -3.39941184056759E-31   2.78642425472941E-05   4.13796891274660E-15   0.00000000000000E+00   0.00000000000000E+00
      0.00000000000000E+00   0.00000000000000E+00   6.57447152789796E-17  -7.72184930424742E-17  -1.14737777634946E-17
     -5.96019423160090E-15   0.00000000000000E+00   0.00000000000000E+00   0.00000000000000E+00   0.00000000000000E+00
     -2.78642425472826E-05   1.47215750550691E-24  -2.78642425472826E-05   1.99920459351091E-15   7.97419282165534E-02
      7.97419282165534E-02   0.00000000000000E+00   0.00000000000000E+00   0.00000000000000E+00   0.00000000000000E+00
      0.00000000000000E+00  -1.76979274656600E-16
      4.96103754979433E-02
      1.80000000000000E+00   1.80000000000000E+00   0.00000000000000E+00   0.00000000000000E+00   2.94350443879223E-05
      9.86897168015017E-31   2.94350443879223E-05   4.13677969804939E-15   0.00000000000000E+00   0.00000000000000E+00
      0.00000000000000E+00   0.00000000000000E+00   4.82437286096141E-17  -7.72184958583047E-17  -2.89747672486906E-17
     -5.96092922697359E-15   0.00000000000000E+00   0.00000000000000E+00   0.00000000000000E+00   0.00000000000000E+00
     -2.94350443878933E-05   9.65738697447433E-25  -2.94350443878933E-05   1.99812581672673E-15   8.92986758962979E-02
      8.92986758962979E-02   0.00000000000000E+00   0.00000000000000E+00   0.00000000000000E+00   0.00000000000000E+00
      0.00000000000000E+00  -1.73976287802528E-16
      5.54364520464098E-02
      1.80000000000000E+00   1.80000000000000E+00   0.00000000000000E+00   0.00000000000000E+00   3.12273966812792E-05
      1.46152713631712E-30   3.12273966812792E-05   4.13547948705912E-15   0.00000000000000E+00   0.00000000000000E+00
      0.00000000000000E+00   0.00000000000000E+00   6.04077580195027E-17  -7.72185003737631E-17  -1.68107423542604E-17
     -5.96175491724625E-15   0.00000000000000E+00   0.00000000000000E+00   0.00000000000000E+00   0.00000000000000E+00
     -3.12273966812624E-05   1.67949687286754E-24  -3.12273966812624E-05   1.99694921477557E-15   9.97856136835376E-02
      9.97856136835376E-02   0.00000000000000E+00   0.00000000000000E+00   0.00000000000000E+00   0.00000000000000E+00
      0.00000000000000E+00  -1.70673784588441E-16
      6.18296000455937E-02
      1.80000000000000E+00   1.80000000000000E+00   0.00000000000000E+00   0.00000000000000E+00   3.32769251063210E-05
      2.17577752985238E-30   3.32769251063210E-05   4.13405841362597E-15   0.00000000000000E+00   0.00000000000000E+00
      0.00000000000000E+00   0.00000000000000E+00   5.70757819781278E-17  -7.72185042512525E-17  -2.01427222731247E-17
     -5.96268391901172E-15   0.00000000000000E+00   0.00000000000000E+00   0.00000000000000E+00   0.00000000000000E+00
     -3.32769251063009E-05   1.19758972122777E-24  -3.32769251063009E-05   1.99566662089386E-15   1.11293280082069E-01
      1.11293280082069E-01   0.00000000000000E+00   0.00000000000000E+00   0.00000000000000E+00   0.00000000000000E+00
      0.00000000000000E+00  -1.67041115508111E-16
      6.88450144500315E-02
      1.80000000000000E+00   1.80000000000000E+00   0.00000000000000E+00   0.00000000000000E+00   3.56253689911093E-05
      8.55405068713463E-31   3.56253689911093E-05   4.13250580947394E-15   0.00000000000000E+00   0.00000000000000E+00
      0.00000000000000E+00   0.00000000000000E+00   3.29065176059333E-17  -7.72185160054697E-17  -4.43119983995365E-17
     -5.96373073933029E-15   0.00000000000000E+00   0.00000000000000E+00   0.00000000000000E+00   0.00000000000000E+00
     -3.56253689910650E-05   7.94488367088765E-24  -3.56253689910650E-05   1.99426929466839E-15   1.23921026010057E-01
      1.23921026010057E-01   0.00000000000000E+00   0.00000000000000E+00   0.00000000000000E+00   0.00000000000000E+00
      0.00000000000000E+00  -1.63044364812049E-16
      7.65432625231679E-02
      1.80000000000000E+00   1.80000000000000E+00   0.00000000000000E+00   0.00000000000000E+00   3.83213504608982E-05
     -7.93216577863475E-31   3.83213504608982E-05   4.13081019784264E-15   0.00000000000000E+00   0.00000000000000E+00
      0.00000000000000E+00   0.00000000000000E+00  -1.71785619455851E-17  -7.72185098358124E-17  -9.43970717813975E-17
     -5.96491219353174E-15   0.00000000000000E+00   0.00000000000000E+00   0.00000000000000E+00   0.00000000000000E+00
     -3.83213504608038E-05  -3.99089177528959E-24  -3.83213504608038E-05   1.99274791757704E-15   1.37777872541702E-01
      1.37777872541702E-01   0.00000000000000E+00   0.00000000000000E+00   0.00000000000000E+00   0.00000000000000E+00
      0.00000000000000E+00  -1.58645921887943E-16
      8.49908067420896E-02
      1.80000000000000E+00   1.80000000000000E+00   0.00000000000000E+00   0.00000000000000E+00   4.14215792603263E-05
     -4.97644397998194E-31   4.14215792603263E-05   4.12895917075411E-15   0.00000000000000E+00   0.00000000000000E+00
      0.00000000000000E+00   0.00000000000000E+00  -6.66063399297880E-17  -7.72185158200402E-17  -1.43824855749828E-16
     -5.96624755823009E-15   0.00000000000000E+00   0.00000000000000E+00   0.00000000000000E+00   0.00000000000000E+00
     -4.14215792601825E-05  -4.65590001103303E-24  -4.14215792601825E-05   1.99109252698392E-15   1.52983452135761E-01
      1.52983452135761E-01   0.00000000000000E+00   0.00000000000000E+00   0.00000000000000E+00   0.00000000000000E+00
      0.00000000000000E+00  -1.53804139507942E-16
      9.42605785983196E-02
      1.80000000000000E+00   1.80000000000000E+00   0.00000000000000E+00   0.00000000000000E+00   4.49924145782084E-05
     -2.93540050784153E-30   4.49924145782084E-05   4.12693920866507E-15   0.00000000000000E+00   0.00000000000000E+00
      0.00000000000000E+00   0.00000000000000E+00  -1.74216277995661E-16  -7.72185313240357E-17  -2.51434809319697E-16
     -5.96775858512303E-15   0.00000000000000E+00   0.00000000000000E+00   0.00000000000000E+00   0.00000000000000E+00
     -4.49924145779570E-05   3.19415657079213E-24  -4.49924145779570E-05   1.98929241799630E-15   1.69669041476975E-01
      1.69669041476975E-01   0.00000000000000E+00   0.00000000000000E+00   0.00000000000000E+00   0.00000000000000E+00
      0.00000000000000E+00  -1.48473041538339E-16
      1.04432608248556E-01
      1.80000000000000E+00   1.80000000000000E+00   0.00000000000000E+00   0.00000000000000E+00   4.91103370648821E-05
      2.88810703662915E-31   4.91103370648821E-05   4.12473577164339E-15   0.00000000000000E+00   0.00000000000000E+00
      0.00000000000000E+00   0.00000000000000E+00  -3.61791088422393E-16  -7.72185349113822E-17  -4.39009623333775E-16
     -5.96947035803587E-15   0.00000000000000E+00   0.00000000000000E+00   0.00000000000000E+00   0.00000000000000E+00
     -4.91103370644431E-05  -2.06326971468902E-24  -4.91103370644431E-05   1.98733618198230E-15   1.87978694847401E-01
      1.87978694847401E-01   0.00000000000000E+00   0.00000000000000E+00   0.00000000000000E+00   0.00000000000000E+00
      0.00000000000000E+00  -1.42601595589822E-16
      1.15594715451416E-01
      1.80000000000000E+00   1.80000000000000E+00   0.00000000000000E+00   0.00000000000000E+00   5.38634327552552E-05
     -3.52552030213081E-30   5.38634327552552E-05   4.12233310092202E-15   0.00000000000000E+00   0.00000000000000E+00
      0.00000000000000E+00   0.00000000000000E+00  -6.22822046174912E-16  -7.72185427262783E-17  -7.00040588901191E-16
     -5.97141139078292E-15   0.00000000000000E+00   0.00000000000000E+00   0.00000000000000E+00   0.00000000000000E+00
     -5.38634327545552E-05  -4.48632824928209E-24  -5.38634327545552E-05   1.98521159060442E-15   2.08070487812548E-01
      2.08070487812548E-01   0.00000000000000E+00   0.00000000000000E+00   0.00000000000000E+00   0.00000000000000E+00
      0.00000000000000E+00  -1.36133300743528E-16
      1.27843267755353E-01
      1.80000000000000E+00   1.80000000000000E+00   0.00000000000000E+00   0.00000000000000E+00   5.93524601619553E-05
     -6.90790669149406E-30   5.93524601619553E-05   4.11971411339918E-15   0.00000000000000E+00   0.00000000000000E+00
      0.00000000000000E+00   0.00000000000000E+00  -1.00220391928778E-15  -7.72185570563534E-17  -1.07942247634413E-15
     -5.97361402599538E-15   0.00000000000000E+00   0.00000000000000E+00   0.00000000000000E+00   0.00000000000000E+00
     -5.93524601608759E-05  -2.01200386066023E-24  -5.93524601608759E-05   1.98290551155490E-15   2.30117881959636E-01
      2.30117881959636E-01   0.00000000000000E+00   0.00000000000000E+00   0.00000000000000E+00   0.00000000000000E+00
      0.00000000000000E+00  -1.29005598958706E-16
      1.41284012483541E-01
      1.80000000000000E+00   1.80000000000000E+00   0.00000000000000E+00   0.00000000000000E+00   6.56915013155565E-05
     -8.96717846834592E-30   6.56915013155565E-05   4.11686032978171E-15   0.00000000000000E+00   0.00000000000000E+00
      0.00000000000000E+00   0.00000000000000E+00  -1.55057092386684E-15  -7.72185667422724E-17  -1.62778949060911E-15
     -5.97611502270393E-15   0.00000000000000E+00   0.00000000000000E+00   0.00000000000000E+00   0.00000000000000E+00
     -6.56915013139287E-05  -6.05413099320328E-24  -6.56915013139287E-05   1.98040383078816E-15   2.54311222470374E-01
      2.54311222470374E-01   0.00000000000000E+00   0.00000000000000E+00   0.00000000000000E+00   0.00000000000000E+00
      0.00000000000000E+00  -1.21149137865931E-16
      1.56032989698606E-01
      1.80000000000000E+00   1.80000000000000E+00   0.00000000000000E+00   0.00000000000000E+00   7.30102595030455E-05
     -2.16760650165675E-29   7.30102595030455E-05   4.11375133033267E-15   0.00000000000000E+00   0.00000000000000E+00
      0.00000000000000E+00   0.00000000000000E+00  -2.26995777808527E-15  -7.72185731036910E-17  -2.34717635118896E-15
     -5.97895495730944E-15   0.00000000000000E+00   0.00000000000000E+00   0.00000000000000E+00   0.00000000000000E+00
     -7.30102595006984E-05  -1.56049834665982E-23  -7.30102595006984E-05   1.97769117947851E-15   2.80859381457491E-01
      2.80859381457491E-01   0.00000000000000E+00   0.00000000000000E+00   0.00000000000000E+00   0.00000000000000E+00
      0.00000000000000E+00  -1.12487552501741E-16
      1.72217534029270E-01
      1.80000000000000E+00   1.80000000000000E+00   0.00000000000000E+00   0.00000000000000E+00   8.14540323336395E-05
     -3.32719322070482E-29   8.14540323336395E-05   4.11036478285444E-15   0.00000000000000E+00   0.00000000000000E+00
      0.00000000000000E+00   0.00000000000000E+00  -3.24861891087699E-15  -7.72185786010825E-17  -3.32583748947808E-15
     -5.98217915752442E-15   0.00000000000000E+00   0.00000000000000E+00   0.00000000000000E+00   0.00000000000000E+00
     -8.14540323303137E-05  -2.85388722943373E-23  -8.14540323303137E-05   1.97475086324708E-15   3.09991561252686E-01
      3.09991561252686E-01   0.00000000000000E+00   0.00000000000000E+00   0.00000000000000E+00   0.00000000000000E+00
      0.00000000000000E+00  -1.02936488577113E-16
      1.89977374008119E-01
      1.80000000000000E+00   1.80000000000000E+00   0.00000000000000E+00   0.00000000000000E+00   9.11840148780918E-05
     -5.47577723975705E-29   9.11840148780918E-05   4.10667626584898E-15   0.00000000000000E+00   0.00000000000000E+00
      0.00000000000000E+00   0.00000000000000E+00  -4.62585421659192E-15  -7.72185824658598E-17  -4.70307279905777E-15
     -5.98583821082098E-15   0.00000000000000E+00   0.00000000000000E+00   0.00000000000000E+00   0.00000000000000E+00
     -9.11840148733888E-05  -4.59992183421859E-23  -9.11840148733888E-05   1.97156468860079E-15   3.41959273214615E-01
      3.41959273214615E-01   0.00000000000000E+00   0.00000000000000E+00   0.00000000000000E+00   0.00000000000000E+00
      0.00000000000000E+00  -9.24027436287856E-17
      2.09465838411576E-01
      1.80000000000000E+00   1.80000000000000E+00   0.00000000000000E+00   0.00000000000000E+00   1.02378058287774E-04
     -8.69732939149674E-29   1.02378058287774E-04   4.10265888405954E-15   0.00000000000000E+00   0.00000000000000E+00
      0.00000000000000E+00   0.00000000000000E+00  -6.87728069410948E-15  -7.72185804824186E-17  -6.95449927459190E-15
     -5.98998805055745E-15   0.00000000000000E+00   0.00000000000000E+00   0.00000000000000E+00   0.00000000000000E+00
     -1.02378058280820E-04  -7.24708316520338E-23  -1.02378058280820E-04   1.96811271562496E-15   3.77038509140837E-01
      3.77038509140837E-01   0.00000000000000E+00   0.00000000000000E+00   0.00000000000000E+00   0.00000000000000E+00
      0.00000000000000E+00  -8.07835491270500E-17
      2.30851180016970E-01
      1.80000000000000E+00   1.80000000000000E+00   0.00000000000000E+00   0.00000000000000E+00   1.15231960162082E-04
     -1.31816280837311E-28   1.15231960162082E-04   4.09828269095865E-15   0.00000000000000E+00   0.00000000000000E+00
      0.00000000000000E+00   0.00000000000000E+00  -1.05490465190405E-14  -7.72185737149019E-17  -1.06262650927554E-14
     -5.99468967368998E-15   0.00000000000000E+00   0.00000000000000E+00   0.00000000000000E+00   0.00000000000000E+00
     -1.15231960151456E-04  -1.07456602886786E-22  -1.15231960151456E-04   1.96437294768366E-15   4.15532124030545E-01
      4.15532124030545E-01   0.00000000000000E+00   0.00000000000000E+00   0.00000000000000E+00   0.00000000000000E+00
      0.00000000000000E+00  -6.79659649523177E-17